300
Created by mstk: step= -1, t= -1.000000 ps
O          12.83000   17.91000   16.58000
H          13.14000   18.11000   17.51000
H          12.38000   17.02000   16.56000
O          22.56000   13.85000   18.91000
H          22.00000   14.67000   18.84000
H          23.43000   14.00000   18.43000
O          19.44000   26.37000   21.25000
H          19.22000   25.42000   21.48000
H          20.43000   26.47000   21.19000
O           5.76000   12.38000   26.40000
H           6.04000   12.19000   25.46000
H           5.24000   11.61000   26.76000
O           8.49000   25.39000    6.44000
H           9.49000   25.45000    6.37000
H           8.19000   25.78000    7.31000
O          13.85000   26.92000    8.75000
H          13.33000   27.43000    9.43000
H          14.83000   26.98000    8.96000
O           2.88000   16.40000   21.94000
H           3.76000   16.75000   21.62000
H           2.74000   15.48000   21.58000
O          25.01000    2.44000   14.57000
H          24.28000    1.77000   14.48000
H          24.63000    3.36000   14.44000
O           4.49000   25.69000   21.04000
H           3.77000   25.00000   21.15000
H           5.31000   25.25000   20.68000
O          20.69000    3.74000   12.62000
H          21.27000    2.94000   12.75000
H          19.82000    3.47000   12.22000
O           7.82000   16.63000   16.17000
H           7.60000   17.60000   16.23000
H           8.81000   16.51000   16.09000
O          23.41000    2.84000   19.80000
H          23.77000    3.23000   20.65000
H          22.45000    2.59000   19.94000
O          17.11000   14.29000    2.65000
H          17.21000   15.15000    3.16000
H          17.88000   13.68000    2.87000
O           1.59000   27.06000   26.76000
H           1.54000   27.63000   27.58000
H           1.28000   27.58000   25.97000
O          16.31000   23.71000    2.64000
H          15.97000   24.06000    1.77000
H          17.22000   24.08000    2.83000
O          11.87000   14.39000   28.11000
H          12.11000   14.38000   29.08000
H          11.39000   15.24000   27.90000
O          26.47000   13.97000   25.63000
H          26.74000   13.80000   26.58000
H          26.87000   13.28000   25.03000
O          18.09000   20.57000   19.11000
H          18.16000   20.22000   18.18000
H          18.84000   21.20000   19.29000
O          15.77000    5.22000    9.11000
H          15.84000    4.37000    9.62000
H          15.15000    5.85000    9.59000
O          22.60000    8.05000    6.94000
H          23.32000    8.27000    7.60000
H          22.76000    8.54000    6.09000
O          27.93000    5.87000    9.59000
H          28.52000    6.64000    9.35000
H          28.49000    5.11000    9.93000
O          28.11000   12.65000   14.12000
H          28.04000   13.10000   13.23000
H          27.36000   11.99000   14.21000
O           5.11000    3.34000   16.41000
H           5.16000    4.34000   16.49000
H           5.12000    3.08000   15.45000
O          20.24000   11.28000   24.33000
H          20.87000   10.57000   24.01000
H          20.45000   11.50000   25.28000
O          27.18000    6.69000   15.45000
H          27.57000    6.47000   16.34000
H          26.91000    7.65000   15.45000
O           8.51000   11.36000    3.72000
H           9.15000   10.59000    3.65000
H           7.57000   11.01000    3.67000
O           6.26000    9.47000   28.62000
H           6.34000   10.44000   28.38000
H           5.81000    8.98000   27.88000
O          19.30000   25.11000   12.58000
H          20.24000   25.04000   12.93000
H          19.21000   24.57000   11.75000
O          19.70000    7.49000   13.45000
H          20.57000    7.92000   13.69000
H          19.13000    8.16000   12.98000
O          12.63000   17.15000    4.99000
H          11.87000   17.80000    5.10000
H          12.60000   16.77000    4.06000
O          23.09000   23.90000    1.51000
H          23.00000   24.61000    2.21000
H          22.49000   23.14000    1.74000
O           9.20000   20.74000    5.26000
H           9.04000   21.73000    5.29000
H          10.17000   20.56000    5.39000
O           6.31000   23.63000   15.60000
H           7.27000   23.72000   15.86000
H           5.97000   22.74000   15.90000
O          21.78000   11.36000   18.21000
H          20.92000   11.50000   17.73000
H          22.53000   11.31000   17.54000
O          16.64000    4.31000   13.38000
H          17.58000    4.57000   13.17000
H          16.01000    4.82000   12.79000
O          26.53000   19.01000   23.06000
H          26.84000   19.08000   22.11000
H          26.78000   18.11000   23.43000
O           3.81000    6.36000   14.59000
H           3.75000    7.27000   14.99000
H           3.13000    6.28000   13.86000
O          17.13000   23.63000   23.02000
H          17.00000   24.53000   23.43000
H          18.06000   23.57000   22.65000
O           3.98000   24.22000   26.34000
H           4.95000   24.44000   26.38000
H           3.46000   24.92000   26.84000
O          14.25000   24.85000   18.99000
H          14.03000   25.78000   19.29000
H          14.16000   24.22000   19.77000
O          21.18000   16.62000    8.84000
H          22.00000   16.05000    8.86000
H          21.44000   17.57000    8.98000
O          26.90000   23.14000   18.56000
H          27.59000   23.87000   18.55000
H          27.36000   22.25000   18.56000
O          28.87000   14.11000   18.47000
H          28.73000   15.10000   18.49000
H          28.06000   13.65000   18.83000
O          18.50000    5.62000   20.34000
H          19.43000    6.00000   20.30000
H          18.55000    4.62000   20.36000
O           2.00000    7.01000   10.58000
H           1.77000    7.65000    9.85000
H           1.18000    6.49000   10.83000
O          19.87000    6.02000   11.49000
H          20.52000    5.37000   11.10000
H          20.19000    6.95000   11.33000
O          21.58000   17.50000   20.23000
H          21.61000   16.50000   20.20000
H          20.63000   17.80000   20.32000
O          11.07000   26.32000    1.46000
H          11.95000   26.19000    1.00000
H          11.11000   25.90000    2.37000
O           5.21000   21.00000    8.69000
H           5.46000   21.14000    9.65000
H           4.22000   21.12000    8.59000
O          11.11000    3.59000    2.76000
H          11.96000    3.63000    3.29000
H          10.91000    4.50000    2.39000
O          14.10000   13.15000   28.51000
H          14.13000   14.03000   28.03000
H          13.35000   12.60000   28.14000
O           3.62000   22.12000   24.83000
H           2.81000   22.70000   24.76000
H           4.44000   22.67000   24.70000
O          16.13000   14.06000   15.84000
H          15.34000   13.47000   16.04000
H          15.80000   14.94000   15.49000
O           5.72000    8.18000   21.73000
H           6.22000    8.93000   22.16000
H           4.74000    8.31000   21.87000
O          23.43000   19.14000   22.35000
H          23.96000   19.71000   21.72000
H          23.39000   19.57000   23.25000
O           2.98000   11.42000   21.66000
H           2.09000   11.58000   22.09000
H           3.07000   10.46000   21.41000
O          18.89000   11.84000    6.68000
H          18.88000   12.32000    7.56000
H          19.17000   10.89000    6.82000
O          28.03000   24.00000   14.77000
H          28.97000   24.09000   15.11000
H          27.50000   23.44000   15.40000
O           4.99000    8.87000    8.47000
H           4.97000    8.14000    9.16000
H           5.59000    9.60000    8.79000
O          27.36000   23.01000   11.16000
H          26.57000   22.40000   11.07000
H          28.10000   22.53000   11.64000
O          11.88000   17.12000   26.13000
H          12.54000   17.32000   26.85000
H          10.99000   17.48000   26.40000
O           8.91000   26.64000   17.20000
H           9.65000   26.05000   16.88000
H           8.64000   26.36000   18.12000
O          25.19000   26.00000   14.20000
H          25.93000   26.59000   13.86000
H          24.36000   26.54000   14.31000
O          22.86000   13.13000   26.13000
H          22.76000   13.03000   25.14000
H          22.91000   12.22000   26.55000
O          17.27000    6.86000    6.98000
H          17.25000    7.86000    6.99000
H          18.02000    6.55000    6.39000
O          16.13000   23.54000   15.67000
H          15.15000   23.38000   15.58000
H          16.33000   24.50000   15.47000
O          14.49000   19.43000   15.25000
H          14.89000   18.69000   15.80000
H          13.68000   19.09000   14.78000
O          26.60000    2.66000    6.68000
H          26.50000    1.68000    6.50000
H          26.98000    2.79000    7.60000
O          10.57000   18.70000   12.34000
H          10.90000   18.68000   13.28000
H          10.12000   19.57000   12.16000
O          11.60000    9.11000   14.51000
H          12.59000    9.21000   14.63000
H          11.13000    9.80000   15.05000
O           1.34000   18.08000   11.33000
H           1.04000   18.79000   10.69000
H           2.34000   18.06000   11.35000
O          28.33000   28.39000   20.77000
H          28.99000   28.97000   21.24000
H          28.74000   27.49000   20.61000
O           5.38000   22.14000   12.01000
H           5.87000   21.34000   12.37000
H           4.41000   22.07000   12.25000
O           4.53000   27.41000   14.53000
H           4.05000   28.13000   15.03000
H           3.89000   26.68000   14.32000
O          22.05000   24.17000    7.29000
H          22.53000   25.04000    7.42000
H          22.70000   23.42000    7.38000
O          16.39000   27.95000   20.36000
H          15.79000   28.41000   19.71000
H          16.19000   28.29000   21.28000
O          20.35000   28.16000   12.34000
H          20.42000   27.16000   12.34000
H          19.38000   28.42000   12.33000
O          20.74000   12.05000   28.22000
H          21.36000   11.35000   27.86000
H          21.26000   12.89000   28.39000
O          20.86000   27.63000    4.08000
H          21.41000   27.04000    3.49000
H          21.24000   28.55000    4.09000
O           1.63000   23.72000   14.68000
H           2.31000   23.98000   13.99000
H           1.69000   22.73000   14.84000
O          24.31000   19.64000   27.55000
H          24.78000   20.47000   27.27000
H          24.83000   18.84000   27.25000
O          27.29000   25.37000    5.49000
H          27.88000   25.98000    4.96000
H          27.31000   24.45000    5.09000
O          25.47000   26.48000   20.07000
H          24.81000   25.91000   19.59000
H          26.35000   26.00000   20.14000
O           3.10000   10.58000   10.66000
H           2.91000    9.61000   10.49000
H           3.78000   10.91000   10.01000
O          11.41000   20.36000   19.98000
H          12.33000   20.10000   20.28000
H          11.16000   19.84000   19.16000
O          12.23000   21.20000   22.18000
H          11.30000   21.52000   22.01000
H          12.48000   21.41000   23.13000
O          18.70000   24.00000    6.84000
H          19.31000   24.37000    6.14000
H          17.80000   24.42000    6.75000
O           0.98000   26.81000   14.75000
H           1.30000   25.87000   14.60000
H           1.75000   27.40000   14.98000
O           3.89000    8.25000    5.88000
H           4.88000    8.39000    5.83000
H           3.65000    7.41000    5.39000
O          28.45000    4.02000    5.96000
H          29.08000    3.28000    5.70000
H          28.93000    4.67000    6.54000
O          19.79000   14.82000   27.81000
H          19.67000   15.81000   27.91000
H          20.56000   14.63000   27.20000
O          15.46000   11.98000   26.20000
H          15.37000   11.93000   27.20000
H          16.40000   11.75000   25.94000
O           9.47000    7.90000   13.03000
H          10.46000    8.03000   12.96000
H           9.02000    8.79000   13.15000
O          21.77000   17.10000   25.37000
H          22.57000   17.68000   25.54000
H          21.27000   17.44000   24.57000
O          26.79000    6.09000    7.16000
H          26.79000    5.09000    7.22000
H          27.73000    6.43000    7.14000
O          25.47000   18.29000    5.42000
H          25.81000   19.22000    5.31000
H          26.18000   17.72000    5.82000
O          26.00000    4.39000   22.95000
H          25.59000    5.07000   22.34000
H          25.48000    4.36000   23.81000
O          26.83000   20.99000   13.27000
H          26.30000   21.72000   13.70000
H          26.30000   20.14000   13.25000
O          24.67000   17.42000   23.44000
H          23.70000   17.35000   23.66000
H          25.16000   16.64000   23.82000
O          27.39000   28.31000   18.19000
H          27.93000   28.98000   18.69000
H          27.26000   27.50000   18.76000
300
Created by mstk: step= -1, t= -1.000000 ps
O          13.35000   17.75000   18.18000
H          13.72000   16.82000   18.26000
H          12.46000   17.56000   17.76000
O          20.94000   21.43000   14.78000
H          21.08000   20.44000   14.90000
H          19.95000   21.54000   14.73000
O          16.15000   22.80000   22.89000
H          16.00000   23.41000   22.11000
H          16.07000   23.44000   23.66000
O           6.67000   12.16000   25.18000
H           6.17000   11.59000   24.54000
H           6.01000   12.75000   25.64000
O          11.41000   22.37000    2.40000
H          11.23000   23.26000    2.82000
H          10.58000   21.82000    2.28000
O          14.54000    2.90000    7.98000
H          13.89000    2.16000    7.85000
H          15.00000    2.96000    7.09000
O           0.81000   21.16000   19.06000
H           1.00000   20.33000   18.53000
H           0.81000   21.93000   18.42000
O           0.54000    5.40000   15.69000
H          29.81000    5.89000   15.44000
H           0.50000    4.62000   16.31000
O          28.56000   25.85000   23.55000
H          27.81000   26.08000   22.93000
H          28.98000   24.98000   23.33000
O          16.72000   26.46000   16.94000
H          17.42000   25.90000   16.49000
H          17.06000   27.37000   17.15000
O          10.66000   17.07000   17.51000
H          10.20000   17.87000   17.12000
H           9.91000   16.52000   17.87000
O          16.66000    0.22000   15.99000
H          17.16000    0.58000   15.20000
H          17.16000    0.50000   16.80000
O          13.89000   15.90000    4.70000
H          13.41000   15.52000    3.92000
H          13.56000   16.84000    4.78000
O           0.23000   27.50000   24.79000
H          29.37000   27.32000   24.70000
H           0.72000   27.00000   24.08000
O          17.66000   21.75000    7.99000
H          16.79000   21.38000    8.31000
H          17.84000   21.20000    7.18000
O          11.96000   13.52000   26.15000
H          12.53000   14.25000   26.51000
H          11.28000   13.94000   25.56000
O           1.69000   15.13000   28.57000
H           2.56000   15.58000   28.77000
H           0.92000   15.73000   28.39000
O          18.88000   24.80000   16.10000
H          18.02000   24.28000   16.09000
H          19.18000   24.84000   17.05000
O          18.11000    1.93000   13.74000
H          17.59000    1.34000   13.14000
H          18.94000    2.33000   13.35000
O          20.91000   10.51000    1.62000
H          20.76000    9.68000    1.09000
H          21.25000   11.19000    0.97000
O           1.03000    3.14000   17.66000
H           1.04000    2.71000   18.56000
H           1.75000    2.85000   17.03000
O           0.30000    7.60000   17.96000
H           1.04000    8.21000   17.68000
H          30.08000    7.17000   17.12000
O           3.22000    3.29000   16.06000
H           3.02000    3.81000   15.23000
H           4.20000    3.10000   15.97000
O          17.87000   10.27000   20.83000
H          17.80000   11.17000   21.25000
H          18.42000   10.55000   20.05000
O          29.12000    8.13000   14.99000
H          28.61000    8.91000   14.63000
H          30.09000    8.38000   14.94000
O           8.14000   12.51000    5.27000
H           7.95000   13.31000    4.70000
H           7.94000   11.70000    4.72000
O           9.30000   11.61000   24.80000
H           9.21000   10.86000   25.45000
H           8.39000   12.02000   24.75000
O          17.54000   22.10000   15.18000
H          17.00000   21.30000   14.93000
H          17.28000   22.67000   14.40000
O          18.92000   12.31000   18.50000
H          18.13000   12.38000   17.90000
H          19.78000   12.35000   17.98000
O          16.97000   17.25000    9.40000
H          17.10000   16.30000    9.11000
H          16.96000   17.25000   10.40000
O          14.18000   19.45000   29.86000
H          14.11000   19.92000   28.98000
H          13.72000   20.12000    0.33000
O           5.40000   19.53000    4.61000
H           5.75000   20.31000    5.13000
H           4.93000   18.92000    5.24000
O           9.60000    0.12000   14.55000
H          10.40000   29.83000   14.99000
H           8.75000   29.81000   14.88000
O          18.87000   13.00000   15.90000
H          19.59000   12.79000   15.24000
H          18.74000   13.99000   15.91000
O          14.13000    0.84000   15.80000
H          13.89000    1.15000   16.72000
H          15.04000    0.42000   15.87000
O          23.86000   26.51000   15.34000
H          24.34000   26.44000   14.47000
H          23.42000   25.63000   15.51000
O           3.66000    5.38000   14.41000
H           2.75000    5.75000   14.62000
H           4.22000    6.05000   13.93000
O          16.58000   23.51000   25.66000
H          16.11000   23.01000   26.38000
H          17.43000   22.99000   25.67000
O           1.03000   26.74000   27.10000
H           1.03000   27.12000   26.18000
H           0.34000   27.15000   27.69000
O          19.08000   24.35000   18.92000
H          18.86000   25.26000   19.29000
H          18.37000   23.65000   18.99000
O          18.22000   23.66000   12.55000
H          18.78000   24.47000   12.39000
H          18.34000   23.05000   11.76000
O          27.79000   25.73000   17.37000
H          27.60000   25.40000   18.29000
H          27.12000   26.37000   17.01000
O          29.81000   10.84000   12.99000
H           0.48000   10.47000   12.49000
H           0.01000   11.63000   13.52000
O          13.72000    9.42000   26.79000
H          14.06000    9.88000   25.97000
H          12.74000    9.57000   26.85000
O           3.92000    7.46000   11.74000
H           4.29000    6.53000   11.77000
H           4.26000    7.82000   10.87000
O          19.09000   29.09000   10.28000
H          18.85000   28.36000    9.64000
H          20.04000   29.12000   10.59000
O          22.24000   23.95000   15.53000
H          21.82000   23.12000   15.16000
H          21.66000   24.02000   16.34000
O          11.49000   25.53000    1.98000
H          11.10000   26.41000    1.70000
H          11.61000   24.94000    1.19000
O           4.32000   21.44000    6.48000
H           4.32000   21.90000    5.59000
H           4.48000   22.11000    7.21000
O           8.60000    2.54000    5.39000
H           7.99000    3.16000    5.88000
H           9.18000    3.13000    4.83000
O          12.27000   11.09000   24.58000
H          12.53000   11.95000   25.01000
H          11.28000   11.03000   24.48000
O          29.74000   23.17000   23.59000
H          29.73000   22.52000   22.83000
H           0.02000   22.75000   24.41000
O          14.59000   19.62000   16.82000
H          14.48000   20.42000   17.42000
H          14.16000   18.85000   17.29000
O           2.32000   12.52000   22.23000
H           1.54000   12.29000   21.65000
H           3.18000   12.59000   21.72000
O          24.57000   24.15000   18.34000
H          24.85000   23.88000   17.41000
H          24.36000   25.12000   18.45000
O           4.50000   10.48000   23.40000
H           3.75000   11.02000   23.02000
H           4.53000    9.57000   22.99000
O          15.30000   12.19000    7.19000
H          16.26000   12.20000    7.47000
H          15.09000   11.48000    6.53000
O          27.68000   28.58000   13.92000
H          27.02000   27.97000   14.34000
H          28.49000   28.53000   14.51000
O           5.37000    4.75000   12.04000
H           4.73000    4.10000   12.45000
H           6.02000    4.19000   11.52000
O          29.66000   22.78000   12.81000
H           0.40000   22.48000   12.40000
H          29.02000   22.02000   12.89000
O          11.85000   15.34000    2.69000
H          10.96000   15.57000    2.30000
H          12.11000   14.46000    2.30000
O          12.41000   26.69000   13.21000
H          13.33000   26.50000   13.54000
H          12.35000   27.68000   13.14000
O          25.37000   24.60000   12.47000
H          24.99000   25.37000   11.97000
H          25.82000   23.93000   11.87000
O          24.56000    5.25000   29.08000
H          24.46000    6.02000   29.71000
H          23.89000    5.23000   28.34000
O          22.89000    9.45000   30.03000
H          23.28000    9.29000    0.83000
H          23.50000   10.01000   29.48000
O          19.88000   19.23000   12.47000
H          20.12000   19.82000   11.70000
H          20.57000   18.53000   12.31000
O          16.92000   19.88000   13.92000
H          17.69000   19.80000   13.29000
H          16.89000   18.99000   14.37000
O          17.68000   26.32000    8.16000
H          16.78000   26.05000    7.83000
H          18.29000   25.53000    8.11000
O          16.13000   19.48000    7.78000
H          16.76000   18.75000    8.06000
H          15.33000   18.94000    7.55000
O          15.66000    1.15000   12.36000
H          15.75000    0.59000   11.54000
H          15.26000    2.02000   12.09000
O           1.46000   21.34000   11.35000
H           2.41000   21.33000   11.66000
H           1.59000   21.17000   10.37000
O          29.61000    5.24000   24.16000
H          29.24000    5.41000   25.08000
H          29.74000    6.07000   23.62000
O           4.03000   20.89000   12.12000
H           4.59000   20.36000   11.48000
H           4.66000   21.38000   12.72000
O          12.78000   29.55000   14.00000
H          12.01000   30.09000   13.66000
H          13.33000    0.02000   14.60000
O          24.80000   24.77000    5.78000
H          24.74000   25.76000    5.93000
H          23.91000   24.49000    5.41000
O          17.65000   20.39000   23.61000
H          17.06000   19.65000   23.29000
H          17.30000   21.26000   23.25000
O          20.18000   25.51000   12.48000
H          20.49000   25.45000   13.43000
H          20.93000   25.97000   12.00000
O          19.14000   17.68000   28.18000
H          18.63000   17.67000   29.04000
H          19.97000   17.12000   28.25000
O          20.40000   25.90000    1.52000
H          19.84000   26.49000    0.93000
H          21.19000   25.58000    1.00000
O          29.74000   27.25000   15.42000
H          29.56000   26.61000   14.67000
H          29.65000   26.84000   16.33000
O          26.74000   12.51000   25.99000
H          26.13000   11.92000   26.52000
H          27.70000   12.28000   26.16000
O          29.27000   21.72000    4.00000
H          30.04000   22.35000    3.88000
H          28.45000   22.15000    3.61000
O          24.25000   28.71000   17.25000
H          23.27000   28.84000   17.09000
H          24.16000   27.78000   16.90000
O           2.12000    8.52000   14.56000
H           2.27000    7.84000   15.28000
H           2.72000    8.31000   13.78000
O          10.56000   18.60000   23.39000
H          11.50000   18.27000   23.33000
H          10.64000   19.56000   23.11000
O          12.13000   18.02000    1.48000
H          12.08000   17.05000    1.22000
H          12.83000   18.40000    0.88000
O          18.62000   23.88000    6.85000
H          19.11000   23.53000    7.65000
H          18.20000   23.00000    6.63000
O          29.67000   25.59000   12.99000
H           0.19000   26.02000   12.35000
H          29.55000   24.61000   12.81000
O           3.95000    8.69000    9.49000
H           3.10000    9.18000    9.69000
H           4.43000    9.03000    8.67000
O           7.51000   13.82000    2.47000
H           8.04000   14.53000    2.00000
H           7.05000   13.26000    1.78000
O          22.71000   17.21000   27.56000
H          23.20000   17.82000   28.19000
H          23.51000   16.73000   27.18000
O          15.88000    6.93000   28.09000
H          14.89000    6.97000   27.92000
H          16.24000    7.77000   27.69000
O          13.12000    8.42000   18.45000
H          13.32000    8.13000   19.39000
H          12.32000    9.02000   18.41000
O          25.10000   14.93000   26.77000
H          25.40000   14.65000   27.68000
H          25.42000   14.22000   26.14000
O          20.14000    8.82000    4.14000
H          20.22000    7.84000    3.94000
H          19.98000    9.32000    3.28000
O          29.13000   18.48000    1.63000
H          28.21000   18.11000    1.69000
H          29.19000   19.16000    2.37000
O          27.11000    4.36000   25.87000
H          27.05000    4.21000   24.88000
H          26.20000    4.35000   26.29000
O          24.75000   27.23000   11.69000
H          25.66000   27.59000   11.90000
H          24.62000   27.53000   10.74000
O          22.18000    6.03000   28.10000
H          21.61000    6.74000   27.69000
H          21.62000    5.52000   28.75000
O          26.60000   27.90000   18.77000
H          25.98000   28.33000   18.12000
H          27.19000   28.67000   19.02000
300
Created by mstk: step= -1, t= -1.000000 ps
O          12.98000   17.97000   16.90000
H          12.04000   17.69000   17.11000
H          13.01000   18.85000   17.38000
O          20.68000   23.25000   14.30000
H          21.11000   23.19000   13.40000
H          19.71000   23.30000   14.09000
O          14.20000   21.01000   20.49000
H          13.97000   21.66000   21.21000
H          14.72000   20.29000   20.95000
O           9.85000   12.44000   22.11000
H           9.95000   13.20000   22.76000
H           8.91000   12.58000   21.79000
O          10.58000   19.01000    3.81000
H          11.03000   18.64000    3.00000
H          11.12000   19.72000    4.26000
O          19.22000    1.88000   15.80000
H          19.99000    1.40000   16.24000
H          19.17000    1.44000   14.90000
O          27.74000   26.45000   14.90000
H          28.29000   25.71000   15.29000
H          28.03000   26.45000   13.95000
O           3.34000    5.44000   16.40000
H           2.86000    4.56000   16.50000
H           2.77000    6.02000   16.99000
O           0.71000   27.33000   23.26000
H           1.46000   27.24000   22.61000
H           0.02000   26.64000   23.03000
O          11.72000    4.01000   21.96000
H          11.90000    4.66000   21.22000
H          12.32000    4.34000   22.69000
O          12.44000   20.98000   18.12000
H          12.76000   21.10000   19.06000
H          12.95000   21.66000   17.58000
O          11.32000    0.91000   19.50000
H          10.54000    0.99000   18.88000
H          11.12000    1.43000   20.33000
O          14.78000   21.02000   10.82000
H          15.42000   20.98000   10.05000
H          14.48000   21.98000   10.83000
O          29.89000   26.19000   26.85000
H          28.89000   26.19000   26.88000
H           0.15000   26.28000   25.92000
O          17.92000   21.72000    9.14000
H          18.77000   21.21000    9.16000
H          17.96000   22.30000    9.96000
O          11.58000    7.30000   22.85000
H          10.66000    6.89000   22.88000
H          11.31000    8.26000   22.77000
O          27.85000   16.14000    0.16000
H          28.75000   16.16000    0.60000
H          27.40000   15.30000    0.46000
O          17.69000   26.90000   16.73000
H          18.04000   26.68000   15.82000
H          18.46000   27.43000   17.09000
O          19.15000   29.53000   13.71000
H          18.46000   29.02000   14.21000
H          19.06000   29.34000   12.73000
O          19.61000    9.48000   28.90000
H          20.42000    9.28000   28.35000
H          19.49000    8.79000   29.61000
O           2.22000    3.06000   16.59000
H           1.42000    2.48000   16.73000
H           3.02000    2.51000   16.84000
O           1.52000    5.55000   18.77000
H           0.96000    4.84000   19.20000
H           1.39000    5.32000   17.80000
O           4.48000    1.51000   17.08000
H           4.89000    2.25000   16.55000
H           5.00000    1.31000   17.91000
O          15.55000    9.57000   20.88000
H          15.45000    9.47000   19.89000
H          16.21000    8.92000   21.25000
O          27.46000    9.67000   14.92000
H          28.34000    9.20000   14.81000
H          26.67000    9.11000   15.18000
O           9.32000   12.67000    4.60000
H          10.10000   12.06000    4.77000
H           9.32000   13.03000    3.67000
O          11.24000   10.00000   22.21000
H          10.71000   10.84000   22.22000
H          11.55000    9.83000   21.27000
O          18.09000   22.85000   13.74000
H          18.32000   21.90000   13.97000
H          17.70000   23.11000   14.62000
O          18.09000    9.66000   16.07000
H          18.77000    9.78000   15.36000
H          17.43000    8.97000   15.77000
O          16.35000   20.09000    7.84000
H          16.99000   19.33000    7.66000
H          16.83000   20.66000    8.50000
O           8.36000   17.28000    4.69000
H           8.94000   18.07000    4.48000
H           7.40000   17.55000    4.71000
O           0.20000   20.56000    1.25000
H          29.80000   21.28000    1.74000
H           0.14000   20.77000    0.27000
O          13.69000   29.44000   12.28000
H          13.51000   29.50000   13.26000
H          13.35000    0.25000   12.00000
O          18.95000   20.21000   14.22000
H          19.82000   19.93000   14.63000
H          18.36000   19.45000   14.46000
O          12.69000   29.51000   17.59000
H          13.58000   29.86000   17.89000
H          12.05000   29.64000   18.35000
O          25.23000   27.59000   13.44000
H          25.75000   26.83000   13.82000
H          24.53000   27.15000   12.87000
O           5.60000    3.77000   15.52000
H           5.02000    4.40000   16.03000