ITEM: TIMESTEP
0
ITEM: NUMBER OF ATOMS
300
ITEM: BOX BOUNDS pp pp pp
0.0000000000000000e+00 3.0000000000000000e+01
0.0000000000000000e+00 3.0000000000000000e+01
0.0000000000000000e+00 3.0000000000000000e+01
ITEM: ATOMS id mol type element q xu yu zu 
1 1 1 H 0.4238 22.545 14.5688 19.8961 
2 1 2 O -0.8476 22.0883 14.5966 19.0069 
3 1 1 H 0.4238 21.9586 13.6643 18.6693 
4 2 1 H 0.4238 25.604 7.9233 3.4358 
5 2 2 O -0.8476 26.4708 7.4328 3.346 
6 2 1 H 0.4238 27.2208 8.09068 3.2773 
7 3 1 H 0.4238 9.3035 4.33191 22.9062 
8 3 2 O -0.8476 9.2606 4.6341 21.9539 
9 3 1 H 0.4238 9.4735 5.60989 21.9038 
10 4 1 H 0.4238 14.0968 5.84089 13.7341 
11 4 2 O -0.8476 14.8155 5.2616 14.1187 
12 4 1 H 0.4238 14.403 4.45488 14.5418 
13 5 1 H 0.4238 24.2185 8.18264 0.642248 
14 5 2 O -0.8476 24.7657 7.6444 0.00129801 
15 5 1 H 0.4238 24.998 6.76533 0.417584 
16 6 1 H 0.4238 5.8851 9.9811 11.196 
17 6 2 O -0.8476 6.1369 9.8978 12.1602 
18 6 1 H 0.4238 6.2249 8.93088 12.3996 
19 7 1 H 0.4238 21.4393 7.07889 24.4572 
20 7 2 O -0.8476 21.7376 6.1787 24.7745 
21 7 1 H 0.4238 22.5305 6.2826 25.375 
22 8 1 H 0.4238 5.18803 23.736 20.1413 
23 8 2 O -0.8476 4.294 23.8577 20.5725 
24 8 1 H 0.4238 4.04839 24.827 20.5631 
25 9 1 H 0.4238 2.22603 20.7297 0.902003 
26 9 2 O -0.8476 2.60809 19.8061 0.9332 
27 9 1 H 0.4238 3.60108 19.8521 0.824291 
28 10 1 H 0.4238 12.4373 22.9849 4.9587 
29 10 2 O -0.8476 11.5969 22.4869 4.7448 
30 10 1 H 0.4238 10.8261 23.1238 4.7307 
31 11 1 H 0.4238 4.47852 11.8264 4.9114 
32 11 2 O -0.8476 3.5436 12.1342 5.088 
33 11 1 H 0.4238 3.5307 13.1306 5.1715 
34 12 1 H 0.4238 21.8359 21.9064 15.0087 
35 12 2 O -0.8476 21.6714 20.9236 14.9252 
36 12 1 H 0.4238 20.6868 20.7518 14.8926 
37 13 1 H 0.4238 17.8739 15.4074 13.1892 
38 13 2 O -0.8476 16.8813 15.4541 13.0767 
39 13 1 H 0.4238 16.4997 14.53 13.0962 
40 14 1 H 0.4238 10.6494 6.7165 2.926 
41 14 2 O -0.8476 11.6241 6.5429 2.7852 
42 14 1 H 0.4238 11.7396 5.83659 2.08679 
43 15 1 H 0.4238 3.75729 5.38445 27.1584 
44 15 2 O -0.8476 3.649 6.0755 26.4437 
45 15 1 H 0.4238 4.54341 6.2955 26.0543 
46 16 1 H 0.4238 25.997 13.4342 24.9406 
47 16 2 O -0.8476 25.1768 13.9688 24.7369 
48 16 1 H 0.4238 25.0473 14.6637 25.4442 
49 17 1 H 0.4238 23.284 15.5315 3.72579 
50 17 2 O -0.8476 23.0932 16.3816 3.2349 
51 17 1 H 0.4238 23.8249 17.04 3.4112 
52 18 1 H 0.4238 12.156 4.0913 20.5278 
53 18 2 O -0.8476 11.4073 4.7286 20.7103 
54 18 1 H 0.4238 11.6859 5.6534 20.4512 
55 19 1 H 0.4238 18.3867 21.5031 7.44359 
56 19 2 O -0.8476 18.2613 20.7571 8.0976 
57 19 1 H 0.4238 18.6827 19.9244 7.73849 
58 20 1 H 0.4238 10.6597 22.3619 7.15279 
59 20 2 O -0.8476 9.8845 22.9809 7.2784 
60 20 1 H 0.4238 10.0163 23.7984 6.71772 
61 21 1 H 0.4238 19.9777 11.5526 15.5282 
62 21 2 O -0.8476 19.9028 11.8118 16.4911 
63 21 1 H 0.4238 20.8175 11.8878 16.8881 
64 22 1 H 0.4238 5.08889 20.3246 20.1039 
65 22 2 O -0.8476 5.2378 19.3939 20.4381 
66 22 1 H 0.4238 5.52729 18.8095 19.68 
67 23 1 H 0.4238 14.7837 5.296 19.8117 
68 23 2 O -0.8476 15.227 5.0691 20.6789 
69 23 1 H 0.4238 15.9877 4.4422 20.5106 
70 24 1 H 0.4238 4.23997 20.9399 2.69758 
71 24 2 O -0.8476 5.0331 20.8326 3.2971 
72 24 1 H 0.4238 5.3762 21.7341 3.5609 
73 25 1 H 0.4238 0.796555 18.3736 10.1997 
74 25 2 O -0.8476 1.7643 18.6038 10.0974 
75 25 1 H 0.4238 2.2401 17.8504 9.6435 
76 26 1 H 0.4238 6.86131 11.0896 22.0862 
77 26 2 O -0.8476 5.9153 11.4136 22.0959 
78 26 1 H 0.4238 5.29601 10.6387 21.9693 
79 27 1 H 0.4238 8.16845 10.877 26.2899 
80 27 2 O -0.8476 7.3234 10.4963 25.9144 
81 27 1 H 0.4238 6.89451 9.90171 26.5945 
82 28 1 H 0.4238 20.7819 13.0151 12.2335 
83 28 2 O -0.8476 19.831 13.3205 12.284 
84 28 1 H 0.4238 19.7997 14.3197 12.2575 
85 29 1 H 0.4238 13.902 25.2549 10.9147 
86 29 2 O -0.8476 13.2031 25.9399 10.7089 
87 29 1 H 0.4238 12.297 25.5554 10.8856 
88 30 1 H 0.4238 1.2621 1.68371 22.4614 
89 30 2 O -0.8476 1.1413 0.948699 23.1286 
90 30 1 H 0.4238 1.51661 1.23391 24.0105 
91 31 1 H 0.4238 21.2245 20.9478 12.4137 
92 31 2 O -0.8476 20.6969 20.0986 12.435 
93 31 1 H 0.4238 21.2771 19.3382 12.1431 
94 32 1 H 0.4238 19.3728 14.5185 26.852 
95 32 2 O -0.8476 18.7331 13.7523 26.7912 
96 32 1 H 0.4238 19.2414 12.8913 26.8095 
97 33 1 H 0.4238 14.3634 26.4459 17.4205 
98 33 2 O -0.8476 13.8629 27.3117 17.4242 
99 33 1 H 0.4238 12.8799 27.1287 17.4135 
100 34 1 H 0.4238 6.28219 23.7575 18.1439 
101 34 2 O -0.8476 7.1832 23.7898 18.5765 
102 34 1 H 0.4238 7.1001 23.5341 19.5397 
103 35 1 H 0.4238 5.32041 7.12089 18.1063 
104 35 2 O -0.8476 6.0917 6.485 18.0787 
105 35 1 H 0.4238 5.75041 5.55132 17.9702 
106 36 1 H 0.4238 1.83927 16.0466 7.22887 
107 36 2 O -0.8476 1.4211 15.9599 8.1331 
108 36 1 H 0.4238 0.72606 15.2413 8.1116 
109 37 1 H 0.4238 26.3997 16.2303 10.7309 
110 37 2 O -0.8476 25.6564 16.7307 10.2869 
111 37 1 H 0.4238 25.3252 16.2081 9.50129 
112 38 1 H 0.4238 19.1014 26.0183 21.4694 
113 38 2 O -0.8476 19.5714 26.0643 20.5879 
114 38 1 H 0.4238 19.929 25.1604 20.3532 
115 39 1 H 0.4238 24.1728 9.40681 23.9811 
116 39 2 O -0.8476 23.316 8.9096 24.1177 
117 39 1 H 0.4238 23.5155 7.95147 24.3231 
118 40 1 H 0.4238 8.99798 5.11749 18.9269 
119 40 2 O -0.8476 9.8957 5.5568 18.8935 
120 40 1 H 0.4238 9.795 6.53553 19.0722 
121 41 1 H 0.4238 14.2189 17.6452 22.6232 
122 41 2 O -0.8476 14.3707 18.1189 21.7557 
123 41 1 H 0.4238 13.6366 17.8884 21.117 
124 42 1 H 0.4238 16.2136 0.0859229 0.0800096 
125 42 2 O -0.8476 17.1137 0.487396 0.248999 
126 42 1 H 0.4238 17.0353 1.48405 0.272201 
127 43 1 H 0.4238 17.9362 23.3034 19.1047 
128 43 2 O -0.8476 17.7758 22.789 19.9471 
129 43 1 H 0.4238 18.3304 21.9569 19.9406 
130 44 1 H 0.4238 24.2945 21.059 20.2172 
131 44 2 O -0.8476 24.7256 20.1587 20.1562 
132 44 1 H 0.4238 25.1511 20.053 19.2574 
133 45 1 H 0.4238 9.13867 16.6136 9.89471 
134 45 2 O -0.8476 8.2178 16.9169 10.1397 
135 45 1 H 0.4238 7.98061 17.728 9.60501 
136 46 1 H 0.4238 26.9701 26.3152 12.9192 
137 46 2 O -0.8476 26.242 26.3951 12.2384 
138 46 1 H 0.4238 26.6415 26.4002 11.3217 
139 47 1 H 0.4238 18.1024 7.1017 21.4692 
140 47 2 O -0.8476 17.3585 6.9123 20.8283 
141 47 1 H 0.4238 16.7763 6.18808 21.1978 
142 48 1 H 0.4238 24.329 25.9465 23.6762 
143 48 2 O -0.8476 24.3347 25.5546 24.5962 
144 48 1 H 0.4238 23.7372 26.0919 25.1914 
145 49 1 H 0.4238 14.1952 16.9392 15.5272 
146 49 2 O -0.8476 13.8424 17.2831 14.657 
147 49 1 H 0.4238 13.815 18.2825 14.6798 
148 50 1 H 0.4238 3.15312 22.604 4.26899 
149 50 2 O -0.8476 2.5203 23.1512 4.8168 
150 50 1 H 0.4238 1.64942 23.2379 4.33301 
151 51 1 H 0.4238 5.82469 13.06 12.2391 
152 51 2 O -0.8476 5.4065 12.6945 11.4075 
153 51 1 H 0.4238 5.89919 13.0379 10.6079 
154 52 1 H 0.4238 21.9133 24.8259 6.32298 
155 52 2 O -0.8476 22.1926 25.5349 6.9705 
156 52 1 H 0.4238 21.6577 25.4483 7.81098 
157 53 1 H 0.4238 9.03982 22.3058 10.3808 
158 53 2 O -0.8476 9.328 21.7725 11.1762 
159 53 1 H 0.4238 9.90525 21.0127 10.877 
160 54 1 H 0.4238 8.1522 14.6915 26.5523 
161 54 2 O -0.8476 8.034 15.4497 25.9111 
162 54 1 H 0.4238 7.81711 16.2842 26.4177 
163 55 1 H 0.4238 5.79248 22.2189 0.5514 
164 55 2 O -0.8476 4.7928 22.209 0.5748 
165 55 1 H 0.4238 4.44898 23.1473 0.538998 
166 56 1 H 0.4238 10.0038 2.348 12.3509 
167 56 2 O -0.8476 9.8876 1.36 12.4527 
168 56 1 H 0.4238 9.56179 0.971983 11.5906 
169 57 1 H 0.4238 8.0077 6.49042 27.0299 
170 57 2 O -0.8476 8.0296 5.4914 27.0683 
171 57 1 H 0.4238 7.51102 5.17682 27.8634 
172 58 1 H 0.4238 12.7453 4.08112 6.11151 
173 58 2 O -0.8476 13.7019 3.8122 5.9991 
174 58 1 H 0.4238 13.7522 2.83292 5.8029 
175 59 1 H 0.4238 21.3333 17.7842 23.1721 
176 59 2 O -0.8476 20.5316 18.0311 23.7165 
177 59 1 H 0.4238 19.7309 18.0953 23.1208 
178 60 1 H 0.4238 8.17774 4.25841 6.94735 
179 60 2 O -0.8476 8.9313 4.0994 7.5852 
180 60 1 H 0.4238 9.68709 4.7176 7.3693 
181 61 1 H 0.4238 9.7144 26.9973 18.6083 
182 61 2 O -0.8476 9.7063 26.1624 19.1587 
183 61 1 H 0.4238 8.78293 25.7786 19.1687 
184 62 1 H 0.4238 24.1516 2.41039 22.5057 
185 62 2 O -0.8476 23.1989 2.1397 22.3674 
186 62 1 H 0.4238 22.7045 2.88002 21.9119 
187 63 1 H 0.4238 27.0357 15.8518 26.653 
188 63 2 O -0.8476 26.7542 15.2792 27.423 
189 63 1 H 0.4238 26.1796 14.5315 27.0901 
190 64 1 H 0.4238 18.3523 25.0973 16.1996 
191 64 2 O -0.8476 17.507 25.5473 16.4876 
192 64 1 H 0.4238 16.9429 24.9003 17.0006 
193 65 1 H 0.4238 8.69269 26.2528 13.8228 
194 65 2 O -0.8476 7.871 25.7799 13.5047 
195 65 1 H 0.4238 7.40602 25.3588 14.2835 
196 66 1 H 0.4238 2.08168 25.8057 5.49679 
197 66 2 O -0.8476 3.0362 25.715 5.7808 
198 66 1 H 0.4238 3.39071 24.8295 5.48049 
199 67 1 H 0.4238 17.9599 1.84228 26.0232 
200 67 2 O -0.8476 17.5458 2.4877 25.3814 
201 67 1 H 0.4238 18.2067 3.20321 25.155 
202 68 1 H 0.4238 1.55279 6.07899 23.6232 
203 68 2 O -0.8476 1.9307 6.3226 22.73 
204 68 1 H 0.4238 2.02511 7.31616 22.6674 
205 69 1 H 0.4238 4.18658 24.0704 26.6591 
206 69 2 O -0.8476 3.2081 23.8726 26.7179 
207 69 1 H 0.4238 2.6959 24.7307 26.754 
208 70 1 H 0.4238 16.4692 11.8017 6.26061 
209 70 2 O -0.8476 15.8142 12.3849 6.7411 
210 70 1 H 0.4238 16.0682 13.3441 6.617 
211 71 1 H 0.4238 18.2389 13.8245 7.35878 
212 71 2 O -0.8476 17.4344 13.9832 7.9311 
213 71 1 H 0.4238 17.2481 13.1672 8.4783 
214 72 1 H 0.4238 5.07018 4.88699 24.6986 
215 72 2 O -0.8476 4.2284 4.3512 24.6328 
216 72 1 H 0.4238 3.8513 4.4347 23.7104 
217 73 1 H 0.4238 23.6722 2.9544 15.6461 
218 73 2 O -0.8476 24.0552 2.8187 16.5598 
219 73 1 H 0.4238 24.6419 2.0089 16.5586 
220 74 1 H 0.4238 10.5505 10.2391 21.7675 
221 74 2 O -0.8476 11.4813 9.9613 21.53 
222 74 1 H 0.4238 11.4998 9.6287 20.5871 
223 75 1 H 0.4238 10.8014 2.34756 23.88 
224 75 2 O -0.8476 10.7295 3.2503 23.4559 
225 75 1 H 0.4238 11.5564 3.43631 22.9253 
226 76 1 H 0.4238 19.8349 17.6873 8.18642 
227 76 2 O -0.8476 20.5065 18.1906 8.7302 
228 76 1 H 0.4238 20.0606 18.9671 9.17537 
229 77 1 H 0.4238 0.00586529 7.33101 1.3244 
230 77 2 O -0.8476 0.944402 7.0034 1.2157 
231 77 1 H 0.4238 0.9357 6.01944 1.03751 
232 78 1 H 0.4238 16.4521 26.8304 17.8793 
233 78 2 O -0.8476 16.2416 27.195 18.7864 
234 78 1 H 0.4238 17.0923 27.426 19.2586 
235 79 1 H 0.4238 27.1031 14.7269 18.1396 
236 79 2 O -0.8476 26.9767 15.3587 17.3749 
237 79 1 H 0.4238 27.7919 15.9293 17.2754 
238 80 1 H 0.4238 4.56079 5.05538 4.36089 
239 80 2 O -0.8476 4.6248 4.0649 4.4827 
240 80 1 H 0.4238 4.4191 3.60839 3.61709 
241 81 1 H 0.4238 14.4969 2.42388 9.14161 
242 81 2 O -0.8476 13.5287 2.2279 9.297 
243 81 1 H 0.4238 13.0757 2.069 8.41978 
244 82 1 H 0.4238 13.3979 17.0944 5.7935 
245 82 2 O -0.8476 13.8404 16.2046 5.9053 
246 82 1 H 0.4238 14.83 16.3096 5.8073 
247 83 1 H 0.4238 15.7823 23.6438 21.8959 
248 83 2 O -0.8476 16.6703 24.0975 21.9713 
249 83 1 H 0.4238 17.0797 23.8838 22.8583 
250 84 1 H 0.4238 20.0013 24.0398 24.5869 
251 84 2 O -0.8476 19.1779 24.5322 24.869 
252 84 1 H 0.4238 18.462 24.4058 24.1823 
253 85 1 H 0.4238 11.6904 15.0386 6.09117 
254 85 2 O -0.8476 10.8044 15.0049 6.5537 
255 85 1 H 0.4238 10.8302 14.3116 7.27389 
256 86 1 H 0.4238 9.05771 8.9431 17.8292 
257 86 2 O -0.8476 10.0517 8.9892 17.7299 
258 86 1 H 0.4238 10.4536 8.11025 17.9866 
259 87 1 H 0.4238 21.6912 8.0954 13.3668 
260 87 2 O -0.8476 22.5085 8.0768 13.9427 
261 87 1 H 0.4238 22.4531 8.8067 14.624 
262 88 1 H 0.4238 14.0193 19.099 18.3154 
263 88 2 O -0.8476 14.4075 18.1999 18.1132 
264 88 1 H 0.4238 13.6954 17.5028 18.1964 
265 89 1 H 0.4238 11.4365 10.1123 26.6263 
266 89 2 O -0.8476 10.5504 10.4952 26.3651 
267 89 1 H 0.4238 9.9285 9.7541 26.1121 
268 90 1 H 0.4238 18.6583 25.0799 8.00651 
269 90 2 O -0.8476 18.7896 25.9701 7.5703 
270 90 1 H 0.4238 19.7582 26.2169 7.6009 
271 91 1 H 0.4238 13.1507 26.5209 24.296 
272 91 2 O -0.8476 14.0154 27.0157 24.3831 
273 91 1 H 0.4238 13.835 27.9986 24.4187 
274 92 1 H 0.4238 3.5766 13.0722 2.879 
275 92 2 O -0.8476 3.45839 13.1726 1.8911 
276 92 1 H 0.4238 2.50848 13.4132 1.69162 
277 93 1 H 0.4238 1.10549 17.1961 4.47865 
278 93 2 O -0.8476 0.999701 17.5317 5.4147 
279 93 1 H 0.4238 0.0448971 17.7834 5.5728 
280 94 1 H 0.4238 2.28739 11.5309 8.1696 
281 94 2 O -0.8476 3.2092 11.8317 7.9251 
282 94 1 H 0.4238 3.7477 11.0449 7.6235 
283 95 1 H 0.4238 7.15819 21.3972 20.3775 
284 95 2 O -0.8476 7.9382 20.9593 19.9305 
285 95 1 H 0.4238 7.6323 20.5095 19.0914 
286 96 1 H 0.4238 18.7882 14.1964 16.7159 
287 96 2 O -0.8476 18.5893 13.3599 16.2053 
288 96 1 H 0.4238 17.6854 13.4334 15.784 
289 97 1 H 0.4238 8.70242 18.135 16.6713 
290 97 2 O -0.8476 8.1317 17.8232 17.4309 
291 97 1 H 0.4238 8.46111 16.9358 17.7533 
292 98 1 H 0.4238 21.0114 14.6824 5.54469 
293 98 2 O -0.8476 21.3163 13.8699 5.0478 
294 98 1 H 0.4238 20.6943 13.6925 4.28512 
295 99 1 H 0.4238 9.16226 3.43098 17.6498 
296 99 2 O -0.8476 8.6692 3.2512 18.501 
297 99 1 H 0.4238 9.0763 2.4627 18.962 
298 100 1 H 0.4238 22.4596 1.37933 6.17629 
299 100 2 O -0.8476 21.8276 2.1226 5.9568 
300 100 1 H 0.4238 21.298 2.36122 6.77076 
ITEM: TIMESTEP
10
ITEM: NUMBER OF ATOMS
300
ITEM: BOX BOUNDS pp pp pp
-2.1580067623290233e-03 3.0002158006762329e+01
-2.1580067623290233e-03 3.0002158006762329e+01
-2.1580067623290233e-03 3.0002158006762329e+01
ITEM: ATOMS id mol type element q xu yu zu 
1 1 1 H 0.4238 22.2665 14.7412 19.9259 
2 1 2 O -0.8476 22.0434 14.55 18.9701 
3 1 1 H 0.4238 22.0541 13.5596 18.8316 
4 2 1 H 0.4238 25.5748 7.93805 3.35678 
5 2 2 O -0.8476 26.4521 7.45978 3.39835 
6 2 1 H 0.4238 27.1517 8.09643 3.07406 
7 3 1 H 0.4238 9.51629 4.20754 22.7176 
8 3 2 O -0.8476 9.12938 4.7171 21.949 
9 3 1 H 0.4238 9.8108 5.44103 21.8411 
10 4 1 H 0.4238 14.2072 5.77646 13.6283 
11 4 2 O -0.8476 14.8753 5.26424 14.168 
12 4 1 H 0.4238 14.4645 4.39648 14.4477 
13 5 1 H 0.4238 24.3731 8.38489 0.598237 
14 5 2 O -0.8476 24.7296 7.65511 0.01487 
15 5 1 H 0.4238 24.8259 6.82313 0.561298 
16 6 1 H 0.4238 5.73498 10.0422 11.267 
17 6 2 O -0.8476 6.16015 9.88874 12.159 
18 6 1 H 0.4238 6.23488 8.92648 12.4208 
19 7 1 H 0.4238 21.4142 6.99472 24.3922 
20 7 2 O -0.8476 21.7518 6.14343 24.7939 
21 7 1 H 0.4238 22.5519 6.29115 25.3754 
22 8 1 H 0.4238 5.13048 23.647 19.9911 
23 8 2 O -0.8476 4.3038 23.8056 20.531 
24 8 1 H 0.4238 4.0107 24.7575 20.4421 
25 9 1 H 0.4238 2.29572 20.7233 0.90546 
26 9 2 O -0.8476 2.63005 19.7808 0.914411 
27 9 1 H 0.4238 3.61246 19.7906 0.727778 
28 10 1 H 0.4238 12.3472 23.1192 5.09105 
29 10 2 O -0.8476 11.6084 22.5224 4.77788 
30 10 1 H 0.4238 10.7498 23.0101 4.61949 
31 11 1 H 0.4238 4.50271 11.948 4.89084 
32 11 2 O -0.8476 3.53458 12.1112 5.08087 
33 11 1 H 0.4238 3.42872 13.0433 5.42736 
34 12 1 H 0.4238 21.7557 21.9124 15.0335 
35 12 2 O -0.8476 21.6719 20.9191 14.9538 
36 12 1 H 0.4238 20.7555 20.7117 14.6115 
37 13 1 H 0.4238 17.8511 15.4576 13.4025 
38 13 2 O -0.8476 16.9203 15.4557 13.0369 
39 13 1 H 0.4238 16.5721 14.5188 13.0057 
40 14 1 H 0.4238 10.5952 6.60382 2.79881 
41 14 2 O -0.8476 11.5927 6.58118 2.7322 
42 14 1 H 0.4238 11.8391 5.86954 2.07426 
43 15 1 H 0.4238 3.55282 5.32599 27.0396 
44 15 2 O -0.8476 3.59959 6.16117 26.4916 
45 15 1 H 0.4238 4.55282 6.1838 26.1901 
46 16 1 H 0.4238 26.001 13.3768 24.8722 
47 16 2 O -0.8476 25.2164 13.9913 24.7905 
48 16 1 H 0.4238 25.0827 14.6434 25.5368 
49 17 1 H 0.4238 23.4028 15.5397 3.74274 
50 17 2 O -0.8476 23.1253 16.3767 3.27106 
51 17 1 H 0.4238 23.7449 17.1156 3.53587 
52 18 1 H 0.4238 11.9549 3.94295 20.3458 
53 18 2 O -0.8476 11.4699 4.74679 20.6904 
54 18 1 H 0.4238 11.8803 5.59815 20.3635 
55 19 1 H 0.4238 18.1691 21.3624 7.31441 
56 19 2 O -0.8476 18.2292 20.707 8.06732 
57 19 1 H 0.4238 18.7516 19.9207 7.73734 
58 20 1 H 0.4238 10.6155 22.319 7.10407 
59 20 2 O -0.8476 9.86565 22.9378 7.33831 
60 20 1 H 0.4238 10.0904 23.7906 6.86682 
61 21 1 H 0.4238 20.1227 11.7789 15.5693 
62 21 2 O -0.8476 20.1824 11.4848 16.5233 
63 21 1 H 0.4238 20.9138 12.0142 16.9532 
64 22 1 H 0.4238 4.90987 20.2739 20.0461 
65 22 2 O -0.8476 5.28531 19.4461 20.4631 
66 22 1 H 0.4238 5.47531 18.8159 19.7103 
67 23 1 H 0.4238 14.9327 5.46147 19.8102 
68 23 2 O -0.8476 15.2595 5.04248 20.6574 
69 23 1 H 0.4238 16.0729 4.51774 20.4063 
70 24 1 H 0.4238 4.44656 21.094 2.51487 
71 24 2 O -0.8476 5.03439 20.8005 3.26878 
72 24 1 H 0.4238 5.55555 21.5708 3.63629 
73 25 1 H 0.4238 0.882865 18.1562 10.1767 
74 25 2 O -0.8476 1.79908 18.5563 10.1543 
75 25 1 H 0.4238 2.27928 17.9844 9.48924 
76 26 1 H 0.4238 6.80341 11.112 22.3373 
77 26 2 O -0.8476 5.89819 11.4426 22.0702 
78 26 1 H 0.4238 5.30451 10.6459 21.9567 
79 27 1 H 0.4238 8.06959 10.9843 26.3435 
80 27 2 O -0.8476 7.29326 10.5149 25.9228 
81 27 1 H 0.4238 6.77522 10.017 26.6183 
82 28 1 H 0.4238 20.7257 13.0185 12.0829 
83 28 2 O -0.8476 19.7852 13.3023 12.27 
84 28 1 H 0.4238 19.865 14.2873 12.423 
85 29 1 H 0.4238 13.9386 25.2573 10.8801 
86 29 2 O -0.8476 13.2355 25.9467 10.7059 
87 29 1 H 0.4238 12.3513 25.5741 10.9879 
88 30 1 H 0.4238 1.21661 1.52162 22.2854 
89 30 2 O -0.8476 1.15603 0.895648 23.0629 
90 30 1 H 0.4238 1.45022 1.38119 23.8861 
91 31 1 H 0.4238 21.2784 20.9277 12.577 
92 31 2 O -0.8476 20.6822 20.1415 12.4142 
93 31 1 H 0.4238 21.295 19.4359 12.0584 
94 32 1 H 0.4238 19.2411 14.5257 26.9273 
95 32 2 O -0.8476 18.6833 13.7004 26.8386 
96 32 1 H 0.4238 19.2671 12.9247 26.5986 
97 33 1 H 0.4238 14.3518 26.4417 17.3108 
98 33 2 O -0.8476 13.8224 27.2806 17.4379 
99 33 1 H 0.4238 12.8408 27.1081 17.5202 
100 34 1 H 0.4238 6.26216 23.5637 18.1216 
101 34 2 O -0.8476 7.14224 23.7497 18.5585 
102 34 1 H 0.4238 7.25698 23.629 19.5445 
103 35 1 H 0.4238 5.32739 7.15214 18.0897 
104 35 2 O -0.8476 6.11321 6.53563 18.1392 
105 35 1 H 0.4238 5.71108 5.62077 18.1022 
106 36 1 H 0.4238 1.68601 16.3191 7.25733 
107 36 2 O -0.8476 1.40716 15.9645 8.14981 
108 36 1 H 0.4238 0.589933 15.4225 7.9536 
109 37 1 H 0.4238 26.5396 16.4219 10.5932 
110 37 2 O -0.8476 25.6397 16.7648 10.3237 
111 37 1 H 0.4238 25.2493 16.1751 9.61671 
112 38 1 H 0.4238 19.158 26.0921 21.4635 
113 38 2 O -0.8476 19.6246 26.0321 20.581 
114 38 1 H 0.4238 19.8674 25.0825 20.3828 
115 39 1 H 0.4238 24.1842 9.46247 24.1592 
116 39 2 O -0.8476 23.3749 8.87785 24.1024 
117 39 1 H 0.4238 23.6545 7.91805 24.0767 
118 40 1 H 0.4238 9.10483 5.0193 19.0951 
119 40 2 O -0.8476 9.86329 5.61149 18.8229 
120 40 1 H 0.4238 9.58602 6.55866 18.9843 
121 41 1 H 0.4238 14.3834 17.5534 22.638 
122 41 2 O -0.8476 14.3892 18.0795 21.7876 
123 41 1 H 0.4238 13.5161 17.9564 21.3159 
124 42 1 H 0.4238 16.2345 0.071484 -0.0782458 
125 42 2 O -0.8476 17.0796 0.499009 0.242725 
126 42 1 H 0.4238 16.9653 1.4912 0.192513 
127 43 1 H 0.4238 18.1209 23.4553 19.2572 
128 43 2 O -0.8476 17.7545 22.7894 19.907 
129 43 1 H 0.4238 18.1977 21.8937 19.8707 
130 44 1 H 0.4238 24.2728 21.0935 20.1006 
131 44 2 O -0.8476 24.678 20.1828 20.1809 
132 44 1 H 0.4238 25.0524 19.9069 19.2956 
133 45 1 H 0.4238 9.10177 16.8063 9.73304 
134 45 2 O -0.8476 8.1994 16.903 10.1531 
135 45 1 H 0.4238 7.74692 17.7049 9.76286 
136 46 1 H 0.4238 27.0294 26.3842 12.8782 
137 46 2 O -0.8476 26.2812 26.3452 12.2158 
138 46 1 H 0.4238 26.6363 26.2811 11.2831 
139 47 1 H 0.4238 18.0104 7.12107 21.6298 
140 47 2 O -0.8476 17.3823 6.9529 20.87 
141 47 1 H 0.4238 16.707 6.28056 21.1732 
142 48 1 H 0.4238 24.308 26.042 23.7127 
143 48 2 O -0.8476 24.3845 25.61 24.6113 
144 48 1 H 0.4238 23.8678 26.2184 25.2136 
145 49 1 H 0.4238 14.1907 16.8262 15.4629 
146 49 2 O -0.8476 13.8398 17.3136 14.6633 
147 49 1 H 0.4238 14.0307 18.2811 14.8289 
148 50 1 H 0.4238 3.08632 22.4907 4.25796 
149 50 2 O -0.8476 2.50211 23.1374 4.74841 
150 50 1 H 0.4238 1.58331 22.9815 4.38574 
151 51 1 H 0.4238 6.0302 13.0699 12.0585 
152 51 2 O -0.8476 5.40876 12.6739 11.3825 
153 51 1 H 0.4238 5.65749 13.0425 10.4868 
154 52 1 H 0.4238 22.0044 24.7291 6.39723 
155 52 2 O -0.8476 22.1664 25.566 6.9202 
156 52 1 H 0.4238 21.7123 25.4572 7.80452 
157 53 1 H 0.4238 8.82687 22.0972 10.365 
158 53 2 O -0.8476 9.30958 21.7373 11.1635 
159 53 1 H 0.4238 9.87417 20.978 10.84 
160 54 1 H 0.4238 7.94642 14.705 26.5793 
161 54 2 O -0.8476 8.01628 15.4941 25.969 
162 54 1 H 0.4238 8.01338 16.3348 26.5105 
163 55 1 H 0.4238 5.80087 22.145 0.725165 
164 55 2 O -0.8476 4.8158 22.2473 0.586506 
165 55 1 H 0.4238 4.58007 23.1957 0.374224 
166 56 1 H 0.4238 10.213 2.28453 12.1947 
167 56 2 O -0.8476 9.87058 1.37308 12.4229 
168 56 1 H 0.4238 9.66283 0.867013 11.5857 
169 57 1 H 0.4238 8.03587 6.43528 27.217 
170 57 2 O -0.8476 7.99184 5.45062 27.0481 
171 57 1 H 0.4238 7.48033 5.01375 27.788 
172 58 1 H 0.4238 12.7447 4.09765 6.09455 
173 58 2 O -0.8476 13.7002 3.82528 5.98078 
174 58 1 H 0.4238 13.8215 2.90569 5.60707 
175 59 1 H 0.4238 21.2431 17.9786 23.0071 
176 59 2 O -0.8476 20.5129 18.0059 23.6897 
177 59 1 H 0.4238 19.6213 18.1703 23.2677 
178 60 1 H 0.4238 8.10289 4.39749 7.04435 
179 60 2 O -0.8476 8.90589 4.10182 7.56186 
180 60 1 H 0.4238 9.69665 4.66217 7.31539 
181 61 1 H 0.4238 9.56943 26.974 18.5355 
182 61 2 O -0.8476 9.74905 26.2239 19.172 
183 61 1 H 0.4238 8.96781 25.6026 19.1115 
184 62 1 H 0.4238 24.1247 2.51463 22.6986 
185 62 2 O -0.8476 23.2707 2.13896 22.3385 
186 62 1 H 0.4238 22.749 2.90297 21.9589 
187 63 1 H 0.4238 27.227 15.7102 26.6315 
188 63 2 O -0.8476 26.7461 15.2893 27.4007 
189 63 1 H 0.4238 26.3651 14.3839 27.2136 
190 64 1 H 0.4238 18.3355 25.2152 16.1859 
191 64 2 O -0.8476 17.4541 25.514 16.5519 
192 64 1 H 0.4238 17.1049 24.7545 17.1009 
193 65 1 H 0.4238 8.727 26.2628 13.8427 
194 65 2 O -0.8476 7.92714 25.7638 13.5093 
195 65 1 H 0.4238 7.56174 25.1865 14.2396 
196 66 1 H 0.4238 2.12388 25.815 5.66434 
197 66 2 O -0.8476 3.10599 25.6904 5.80571 
198 66 1 H 0.4238 3.25388 24.7263 5.58529 
199 67 1 H 0.4238 18.0146 2.03527 26.1316 
200 67 2 O -0.8476 17.6067 2.51151 25.3526 
201 67 1 H 0.4238 18.2828 3.2114 25.1223 
202 68 1 H 0.4238 1.6191 6.04268 23.6382 
203 68 2 O -0.8476 1.91385 6.29126 22.7155 
204 68 1 H 0.4238 2.02903 7.28371 22.6729 
205 69 1 H 0.4238 4.21712 24.1185 26.5445 
206 69 2 O -0.8476 3.25036 23.9434 26.731 
207 69 1 H 0.4238 2.75966 24.8117 26.6572 
208 70 1 H 0.4238 16.4123 11.8193 6.19258 
209 70 2 O -0.8476 15.8308 12.3741 6.78769 
210 70 1 H 0.4238 16.0337 13.3532 6.76985 
211 71 1 H 0.4238 18.2621 13.7757 7.47071 
212 71 2 O -0.8476 17.4176 14.0106 7.95198 
213 71 1 H 0.4238 17.2713 13.2521 8.58708 
214 72 1 H 0.4238 5.14045 4.72277 24.6579 
215 72 2 O -0.8476 4.22436 4.32287 24.6278 
216 72 1 H 0.4238 3.8599 4.42686 23.7024 
217 73 1 H 0.4238 23.6511 2.86329 15.6904 
218 73 2 O -0.8476 24.0625 2.7731 16.5974 
219 73 1 H 0.4238 24.6496 1.96483 16.5518 
220 74 1 H 0.4238 10.5527 10.3135 21.6416 
221 74 2 O -0.8476 11.4511 9.89468 21.509 
222 74 1 H 0.4238 11.5468 9.71659 20.5296 
223 75 1 H 0.4238 10.7959 2.29078 23.8581 
224 75 2 O -0.8476 10.6978 3.2077 23.4712 
225 75 1 H 0.4238 11.4506 3.41194 22.8453 
226 76 1 H 0.4238 19.7772 17.8588 8.09644 
227 76 2 O -0.8476 20.5039 18.2083 8.68787 
228 76 1 H 0.4238 20.0759 18.7403 9.41853 
229 77 1 H 0.4238 0.0395181 7.42499 1.51463 
230 77 2 O -0.8476 0.90163 7.04171 1.18311 
231 77 1 H 0.4238 0.736937 6.11055 0.857753 
232 78 1 H 0.4238 16.4876 26.8633 17.9059 
233 78 2 O -0.8476 16.2728 27.2115 18.8183 
234 78 1 H 0.4238 17.1529 27.5171 19.1818 
235 79 1 H 0.4238 27.0643 14.7521 18.1463 
236 79 2 O -0.8476 26.9287 15.3929 17.3907 
237 79 1 H 0.4238 27.7548 15.9293 17.2173 
238 80 1 H 0.4238 4.6872 5.00306 4.41868 
239 80 2 O -0.8476 4.60216 4.01053 4.50642 
240 80 1 H 0.4238 4.36593 3.57738 3.63658 
241 81 1 H 0.4238 14.4445 2.4834 9.14414 
242 81 2 O -0.8476 13.4805 2.27154 9.30509 
243 81 1 H 0.4238 13.003 1.91991 8.49989 
244 82 1 H 0.4238 13.3937 17.137 5.67517 
245 82 2 O -0.8476 13.8369 16.2582 5.8521 
246 82 1 H 0.4238 14.8071 16.3765 5.64082 
247 83 1 H 0.4238 15.7757 23.6987 21.8014 
248 83 2 O -0.8476 16.6833 24.0739 21.99 
249 83 1 H 0.4238 17.0043 23.848 22.9098 
250 84 1 H 0.4238 20.067 24.0865 24.6769 
251 84 2 O -0.8476 19.1761 24.5032 24.8578 
252 84 1 H 0.4238 18.4737 24.2931 24.1776 
253 85 1 H 0.4238 11.6864 15.1853 6.16772 
254 85 2 O -0.8476 10.7548 15.0127 6.48755 
255 85 1 H 0.4238 10.859 14.4107 7.27928 
256 86 1 H 0.4238 9.14236 8.78662 17.9368 
257 86 2 O -0.8476 10.1054 8.96381 17.7338 
258 86 1 H 0.4238 10.6917 8.1893 17.9715 
259 87 1 H 0.4238 21.6481 7.98941 13.5043 
260 87 2 O -0.8476 22.5394 8.07448 13.9498 
261 87 1 H 0.4238 22.403 8.63757 14.7649 
262 88 1 H 0.4238 14.0508 19.133 18.4049 
263 88 2 O -0.8476 14.3809 18.2496 18.0722 
264 88 1 H 0.4238 13.6741 17.556 18.2116 
265 89 1 H 0.4238 11.5292 10.2132 26.3677 
266 89 2 O -0.8476 10.5619 10.4669 26.3764 
267 89 1 H 0.4238 10.0822 9.70996 25.9326 
268 90 1 H 0.4238 18.6786 25.0791 7.85483 
269 90 2 O -0.8476 18.8534 26.0145 7.54733 
270 90 1 H 0.4238 19.8121 26.283 7.64129 
271 91 1 H 0.4238 13.1538 26.5828 24.1228 
272 91 2 O -0.8476 13.9932 27.0188 24.4475 
273 91 1 H 0.4238 13.946 28.0014 24.268 
274 92 1 H 0.4238 3.44872 12.9778 2.93055 
275 92 2 O -0.8476 3.46687 13.1449 1.94474 
276 92 1 H 0.4238 2.54497 13.3263 1.60236 
277 93 1 H 0.4238 1.04375 17.122 4.51247 
278 93 2 O -0.8476 1.01768 17.5385 5.42126 
279 93 1 H 0.4238 0.0729143 17.7523 5.66981 
280 94 1 H 0.4238 2.27722 11.5614 7.94472 
281 94 2 O -0.8476 3.24228 11.8174 7.88828 
282 94 1 H 0.4238 3.72853 11.0396 7.48994 
283 95 1 H 0.4238 7.02369 21.1885 20.3198 
284 95 2 O -0.8476 7.93857 20.9995 19.963 
285 95 1 H 0.4238 7.90092 20.431 19.1411 
286 96 1 H 0.4238 18.5993 14.3966 16.76 
287 96 2 O -0.8476 18.34 13.638 16.1622 
288 96 1 H 0.4238 17.4105 13.4038 15.8774 
289 97 1 H 0.4238 8.59995 18.0478 16.5337 
290 97 2 O -0.8476 8.17879 17.7973 17.4054 
291 97 1 H 0.4238 8.4033 16.8489 17.6295 
292 98 1 H 0.4238 21.0103 14.6376 5.63055 
293 98 2 O -0.8476 21.273 13.8335 5.09714 
294 98 1 H 0.4238 20.6797 13.7942 4.29314 
295 99 1 H 0.4238 9.30828 3.58242 17.8747 
296 99 2 O -0.8476 8.62643 3.24765 18.5251 
297 99 1 H 0.4238 8.98686 2.39668 18.9072 
298 100 1 H 0.4238 22.3153 1.40822 6.29093 
299 100 2 O -0.8476 21.7886 2.18215 5.93926 
300 100 1 H 0.4238 21.1148 2.41373 6.64092 
ITEM: TIMESTEP
20
ITEM: NUMBER OF ATOMS
300
ITEM: BOX BOUNDS pp pp pp
-6.1071882088583607e-03 3.0006107188208858e+01
-6.1071882088583607e-03 3.0006107188208858e+01
-6.1071882088583607e-03 3.0006107188208858e+01
ITEM: ATOMS id mol type element q xu yu zu 
1 1 1 H 0.4238 21.9843 14.9215 19.8455 
2 1 2 O -0.8476 21.9977 14.4982 18.9396 
3 1 1 H 0.4238 22.1632 13.5178 19.0462 
4 2 1 H 0.4238 25.522 7.90157 3.40476 
5 2 2 O -0.8476 26.4347 7.49422 3.43673 
6 2 1 H 0.4238 27.1005 8.04969 2.93849 
7 3 1 H 0.4238 9.42029 3.98745 22.2973 
8 3 2 O -0.8476 8.97552 4.8263 21.9833 
9 3 1 H 0.4238 9.81002 4.97468 21.4526 
10 4 1 H 0.4238 14.3591 5.71382 13.5301 
11 4 2 O -0.8476 14.9299 5.26451 14.2173 
12 4 1 H 0.4238 14.565 4.34122 14.3376 
13 5 1 H 0.4238 24.4898 8.52914 0.492601 
14 5 2 O -0.8476 24.698 7.66626 0.0319891 
15 5 1 H 0.4238 24.6478 6.89843 0.67072 
16 6 1 H 0.4238 5.53615 10.1413 11.4682 
17 6 2 O -0.8476 6.19727 9.87434 12.1694 
18 6 1 H 0.4238 6.14544 8.88116 12.2742 
19 7 1 H 0.4238 21.489 6.98371 24.4279 
20 7 2 O -0.8476 21.7672 6.10049 24.8055 
21 7 1 H 0.4238 22.4642 6.39638 25.4587 
22 8 1 H 0.4238 5.08894 23.6831 19.8605 
23 8 2 O -0.8476 4.31161 23.7513 20.4859 
24 8 1 H 0.4238 3.94829 24.6757 20.3692 
25 9 1 H 0.4238 2.40442 20.7198 0.777938 
26 9 2 O -0.8476 2.65093 19.7585 0.901797 
27 9 1 H 0.4238 3.59314 19.736 0.56744 
28 10 1 H 0.4238 12.1879 23.3306 5.0893 
29 10 2 O -0.8476 11.6186 22.5526 4.82352 
30 10 1 H 0.4238 10.7849 22.9362 4.42617 
31 11 1 H 0.4238 4.51908 12.0895 4.92908 
32 11 2 O -0.8476 3.52536 12.1067 5.03992 
33 11 1 H 0.4238 3.39329 12.6801 5.84847 
34 12 1 H 0.4238 21.6814 21.9212 15.0762 
35 12 2 O -0.8476 21.6651 20.9253 14.9864 
36 12 1 H 0.4238 20.9985 20.5589 14.3372 
37 13 1 H 0.4238 17.7303 15.4277 13.6448 
38 13 2 O -0.8476 16.9663 15.4589 13.0003 
39 13 1 H 0.4238 16.6773 14.5111 12.8652 
40 14 1 H 0.4238 10.557 6.55042 2.68053 
41 14 2 O -0.8476 11.5552 6.61111 2.67605 
42 14 1 H 0.4238 12.0023 5.94965 2.07388 
43 15 1 H 0.4238 3.15135 5.35672 26.6818 
44 15 2 O -0.8476 3.55168 6.2688 26.593 
45 15 1 H 0.4238 4.42861 6.12817 26.1334 
46 16 1 H 0.4238 26.0493 13.4228 24.9347 
47 16 2 O -0.8476 25.2463 14.0104 24.8346 
48 16 1 H 0.4238 25.2129 14.6092 25.6348 
49 17 1 H 0.4238 23.4858 15.5337 3.74718 
50 17 2 O -0.8476 23.1566 16.3711 3.31079 
51 17 1 H 0.4238 23.6626 17.1745 3.62487 
52 18 1 H 0.4238 11.7251 3.99169 20.0641 
53 18 2 O -0.8476 11.6258 4.73687 20.7236 
54 18 1 H 0.4238 12.0206 5.43883 20.1308 
55 19 1 H 0.4238 17.8941 21.2098 7.25245 
56 19 2 O -0.8476 18.2029 20.6587 8.02776 
57 19 1 H 0.4238 18.8502 19.9535 7.73847 
58 20 1 H 0.4238 10.4882 22.1989 7.04544 
59 20 2 O -0.8476 9.85846 22.8938 7.39267 
60 20 1 H 0.4238 10.0327 23.8484 7.15114 
61 21 1 H 0.4238 19.9891 11.74 16.0353 
62 21 2 O -0.8476 20.5631 11.0977 16.5434 
63 21 1 H 0.4238 20.8751 11.893 17.0632 
64 22 1 H 0.4238 4.56358 20.0754 20.1631 
65 22 2 O -0.8476 5.33787 19.5184 20.4636 
66 22 1 H 0.4238 5.4078 18.6927 19.9038 
67 23 1 H 0.4238 15.0995 5.65967 19.8883 
68 23 2 O -0.8476 15.3005 5.01647 20.6272 
69 23 1 H 0.4238 16.08 4.47327 20.3151 
70 24 1 H 0.4238 4.85646 21.2109 2.34744 
71 24 2 O -0.8476 5.02376 20.7823 3.23536 
72 24 1 H 0.4238 5.72603 21.335 3.68411 
73 25 1 H 0.4238 0.977574 17.9751 10.2478 
74 25 2 O -0.8476 1.82831 18.4982 10.1966 
75 25 1 H 0.4238 2.36497 18.1574 9.42468 
76 26 1 H 0.4238 6.63344 11.2604 22.6748 
77 26 2 O -0.8476 5.8883 11.4621 22.0391 
78 26 1 H 0.4238 5.27295 10.6754 21.9897 
79 27 1 H 0.4238 7.96998 11.1014 26.3537 
80 27 2 O -0.8476 7.27038 10.5242 25.9325 
81 27 1 H 0.4238 6.65366 10.2486 26.6699 
82 28 1 H 0.4238 20.6011 12.8675 11.9403 
83 28 2 O -0.8476 19.7536 13.2951 12.255 
84 28 1 H 0.4238 19.8114 14.2426 12.5697 
85 29 1 H 0.4238 13.9912 25.2852 10.8762 
86 29 2 O -0.8476 13.265 25.9494 10.6989 
87 29 1 H 0.4238 12.4053 25.6372 11.1033 
88 30 1 H 0.4238 1.16565 1.32867 22.1244 
89 30 2 O -0.8476 1.17031 0.845547 23 
90 30 1 H 0.4238 1.38646 1.49851 23.7259 
91 31 1 H 0.4238 21.3135 20.8562 12.7671 