# DFF generated LAMMPS data file

120 atoms
120 bonds
180 angles
240 dihedrals
60 impropers

2  atom types
2  bond types
2  angle types
3  dihedral types
1  improper types

      0.0000     29.6032   xlo xhi
      0.0000     29.6032   ylo yhi
      0.0000     29.6032   zlo zhi

Masses

           1      1.0079   #   h_1
           2     12.0110   #   c_3a

Atoms

           1           1           2    -0.12000     9.92200    19.10000     0.81900	      #     C1
           2           1           2    -0.12000     9.55500    18.27700     1.99100	      #     C2
           3           1           2    -0.12000     8.57000    18.78400     2.97100	      #     C3
           4           1           2    -0.12000     7.95300    20.11600     2.77900	      #     C4
           5           1           2    -0.12000     8.32200    20.93900     1.60700	      #     C5
           6           1           2    -0.12000     9.30600    20.43200     0.62700	      #     C6
           7           1           1     0.12000    10.92500    18.90900     0.45300	      #     H7
           8           1           1     0.12000     9.64600    17.21200     1.81800	      #     H8
           9           1           1     0.12000     7.94000    18.09100     3.51600	      #     H9
          10           1           1     0.12000     6.96400    20.20100     3.21100	      #     H10
          11           1           1     0.12000     7.60200    21.62700     1.18000	      #     H11
          12           1           1     0.12000     9.85600    21.21500     0.12100	      #     H12
          13           2           2    -0.12000     6.78100    14.61200    14.16000	      #     C13
          14           2           2    -0.12000     6.67600    13.42700    15.03700	      #     C14
          15           2           2    -0.12000     5.94000    13.51600    16.31700	      #     C15
          16           2           2    -0.12000     5.31000    14.79300    16.72000	      #     C16
          17           2           2    -0.12000     5.41600    15.97900    15.84300	      #     C17
          18           2           2    -0.12000     6.15100    15.88900    14.56300	      #     C18
          19           2           1     0.12000     7.67400    14.61800    13.54600	      #     H19
          20           2           1     0.12000     6.71600    12.48600    14.50100	      #     H20
          21           2           1     0.12000     5.44200    12.64200    16.71900	      #     H21
          22           2           1     0.12000     4.44400    14.66600    17.35600	      #     H22
          23           2           1     0.12000     4.62600    16.72100    15.83700	      #     H23
          24           2           1     0.12000     6.58200    16.83000    14.24400	      #     H24
          25           3           2    -0.12000    15.07400     6.56900    17.17900	      #     C25
          26           3           2    -0.12000    15.20000     5.91300    15.86100	      #     C26
          27           3           2    -0.12000    15.82600     6.63500    14.73200	      #     C27
          28           3           2    -0.12000    16.32300     8.01600    14.92200	      #     C28
          29           3           2    -0.12000    16.19500     8.67300    16.24100	      #     C29
          30           3           2    -0.12000    15.57100     7.95000    17.37000	      #     C30
          31           3           1     0.12000    14.23300     6.21100    17.76200	      #     H31
          32           3           1     0.12000    15.27400     4.83300    15.91900	      #     H32
          33           3           1     0.12000    16.35700     6.08600    13.96300	      #     H33
          34           3           1     0.12000    17.14500     8.27400    14.26600	      #     H34
          35           3           1     0.12000    16.92500     9.41200    16.55100	      #     H35
          36           3           1     0.12000    15.09600     8.60200    18.09100	      #     H36
          37           4           2    -0.12000     3.66100     5.86900    14.53000	      #     C37
          38           4           2    -0.12000     2.70400     6.58300    15.40200	      #     C38
          39           4           2    -0.12000     1.38200     5.98700    15.69300	      #     C39
          40           4           2    -0.12000     1.01800     4.67600    15.11100	      #     C40
          41           4           2    -0.12000     1.97500     3.96200    14.23800	      #     C41
          42           4           2    -0.12000     3.29600     4.55800    13.94800	      #     C42
          43           4           1     0.12000     4.33800     6.52800    13.99900	      #     H43
          44           4           1     0.12000     3.18000     7.22700    16.13200	      #     H44
          45           4           1     0.12000     0.89000     6.19300    16.63600	      #     H45
          46           4           1     0.12000     0.31300     4.11600    15.71300	      #     H46
          47           4           1     0.12000     1.97100     2.87900    14.20200	      #     H47
          48           4           1     0.12000     3.70600     4.25800    12.99100	      #     H48
          49           5           2    -0.12000     4.03800    23.28700    17.78500	      #     C49
          50           5           2    -0.12000     2.74900    23.63500    17.15000	      #     C50
          51           5           2    -0.12000     2.57400    23.46700    15.69100	      #     C51
          52           5           2    -0.12000     3.69000    22.95300    14.86700	      #     C52
          53           5           2    -0.12000     4.98000    22.60600    15.50200	      #     C53
          54           5           2    -0.12000     5.15400    22.77200    16.96100	      #     C54
          55           5           1     0.12000     4.24600    23.85600    18.68300	      #     H55
          56           5           1     0.12000     1.89800    23.53000    17.81300	      #     H56
          57           5           1     0.12000     1.59600    23.24100    15.28400	      #     H57
          58           5           1     0.12000     3.36400    22.42600    13.97900	      #     H58
          59           5           1     0.12000     5.59900    21.82400    15.07800	      #     H59
          60           5           1     0.12000     6.17900    22.96500    17.25500	      #     H60
          61           6           2    -0.12000    13.56100    21.84500     7.39700	      #     C61
          62           6           2    -0.12000    13.14000    21.03400     8.55900	      #     C62
          63           6           2    -0.12000    11.77500    21.18200     9.10900	      #     C63
          64           6           2    -0.12000    10.83000    22.14200     8.49600	      #     C64
          65           6           2    -0.12000    11.25200    22.95400     7.33300	      #     C65
          66           6           2    -0.12000    12.61700    22.80500     6.78300	      #     C66
          67           6           1     0.12000    14.62600    22.03900     7.36800	      #     H67
          68           6           1     0.12000    13.65200    20.08200     8.63200	      #     H68
          69           6           1     0.12000    11.28600    20.33900     9.58400	      #     H69
          70           6           1     0.12000     9.79100    21.86100     8.61200	      #     H70
          71           6           1     0.12000    10.52100    23.26700     6.59700	      #     H71
          72           6           1     0.12000    12.99100    23.70200     6.30500	      #     H72
          73           7           2    -0.12000    19.06900    23.74500     1.46600	      #     C73
          74           7           2    -0.12000    19.07800    22.54700     2.33300	      #     C74
          75           7           2    -0.12000    18.51400    22.61800     3.69800	      #     C75
          76           7           2    -0.12000    17.94000    23.88800     4.19700	      #     C76
          77           7           2    -0.12000    17.93200    25.08600     3.33000	      #     C77
          78           7           2    -0.12000    18.49500    25.01500     1.96500	      #     C78
          79           7           1     0.12000    19.87500    23.76100     0.74200	      #     H79
          80           7           1     0.12000    19.04900    21.61400     1.78400	      #     H80
          81           7           1     0.12000    18.07100    21.73800     4.14900	      #     H81
          82           7           1     0.12000    17.16300    23.75000     4.93800	      #     H82
          83           7           1     0.12000    17.14700    25.82600     3.43600	      #     H83
          84           7           1     0.12000    18.88100    25.96100     1.60600	      #     H84
          85           8           2    -0.12000     4.07800     8.80600     7.43700	      #     C85
          86           8           2    -0.12000     3.64100     8.82900     8.84900	      #     C86
          87           8           2    -0.12000     3.75800     7.61200     9.68000	      #     C87
          88           8           2    -0.12000     4.31200     6.36900     9.09700	      #     C88
          89           8           2    -0.12000     4.74900     6.34600     7.68400	      #     C89
          90           8           2    -0.12000     4.63200     7.56400     6.85400	      #     C90
          91           8           1     0.12000     3.54500     9.51000     6.80800	      #     H91
          92           8           1     0.12000     3.71500     9.80800     9.31000	      #     H92
          93           8           1     0.12000     3.91800     7.69600    10.74800	      #     H93
          94           8           1     0.12000     4.79600     5.72900     9.82400	      #     H94
          95           8           1     0.12000     5.55300     5.68800     7.37600	      #     H95
          96           8           1     0.12000     4.50500     7.35800     5.79800	      #     H96
          97           9           2    -0.12000    23.67300    16.76400    20.04000	      #     C97
          98           9           2    -0.12000    24.28200    18.09500    19.82900	      #     C98
          99           9           2    -0.12000    24.98700    18.77000    20.94000	      #     C99
         100           9           2    -0.12000    25.08200    18.11400    22.26300	      #     C100
         101           9           2    -0.12000    24.47200    16.78300    22.47400	      #     C101
         102           9           2    -0.12000    23.76800    16.10800    21.36300	      #     C102
         103           9           1     0.12000    22.82000    16.57200    19.40000	      #     H103
         104           9           1     0.12000    24.58900    18.27400    18.80600	      #     H104
         105           9           1     0.12000    25.80900    19.44400    20.73200	      #     H105
         106           9           1     0.12000    25.95900    18.40300    22.82800	      #     H106
         107           9           1     0.12000    24.90400    16.09700    23.19300	      #     H107
         108           9           1     0.12000    22.98500    15.43600    21.69100	      #     H108
         109          10           2    -0.12000    10.26700    10.26700    12.45500	      #     C109
         110          10           2    -0.12000     9.72900     9.16500    13.28000	      #     C110
         111          10           2    -0.12000     8.43100     8.54700    12.93200	      #     C111
         112          10           2    -0.12000     7.67000     9.03400    11.75900	      #     C112
         113          10           2    -0.12000     8.20900    10.13800    10.93500	      #     C113
         114          10           2    -0.12000     9.50700    10.75400    11.28300	      #     C114
         115          10           1     0.12000    10.90800    10.94600    13.00600	      #     H115
         116          10           1     0.12000    10.49500     8.57400    13.76800	      #     H116
         117          10           1     0.12000     8.24500     7.50500    13.16500	      #     H117
         118          10           1     0.12000     7.04100     8.27800    11.30700	      #     H118
         119          10           1     0.12000     7.97500    10.18900     9.87900	      #     H119
         120          10           1     0.12000     9.59100    11.78900    10.97500	      #     H120

Bonds

           1           2           1           2
           2           2           2           3
           3           2           3           4
           4           2           4           5
           5           2           5           6
           6           2           6           1
           7           1           1           7
           8           1           2           8
           9           1           3           9
          10           1           4          10
          11           1           5          11
          12           1           6          12
          13           2          13          14
          14           2          14          15
          15           2          15          16
          16           2          16          17
          17           2          17          18
          18           2          18          13
          19           1          13          19
          20           1          14          20
          21           1          15          21
          22           1          16          22
          23           1          17          23
          24           1          18          24
          25           2          25          26
          26           2          26          27
          27           2          27          28
          28           2          28          29
          29           2          29          30
          30           2          30          25
          31           1          25          31
          32           1          26          32
          33           1          27          33
          34           1          28          34
          35           1          29          35
          36           1          30          36
          37           2          37          38
          38           2          38          39
          39           2          39          40
          40           2          40          41
          41           2          41          42
          42           2          42          37
          43           1          37          43
          44           1          38          44
          45           1          39          45
          46           1          40          46
          47           1          41          47
          48           1          42          48
          49           2          49          50
          50           2          50          51
          51           2          51          52
          52           2          52          53
          53           2          53          54
          54           2          54          49
          55           1          49          55
          56           1          50          56
          57           1          51          57
          58           1          52          58
          59           1          53          59
          60           1          54          60
          61           2          61          62
          62           2          62          63
          63           2          63          64
          64           2          64          65
          65           2          65          66
          66           2          66          61
          67           1          61          67
          68           1          62          68
          69           1          63          69
          70           1          64          70
          71           1          65          71
          72           1          66          72
          73           2          73          74
          74           2          74          75
          75           2          75          76
          76           2          76          77
          77           2          77          78
          78           2          78          73
          79           1          73          79
          80           1          74          80
          81           1          75          81
          82           1          76          82
          83           1          77          83
          84           1          78          84
          85           2          85          86
          86           2          86          87
          87           2          87          88
          88           2          88          89
          89           2          89          90
          90           2          90          85
          91           1          85          91
          92           1          86          92
          93           1          87          93
          94           1          88          94
          95           1          89          95
          96           1          90          96
          97           2          97          98
          98           2          98          99
          99           2          99         100
         100           2         100         101
         101           2         101         102
         102           2         102          97
         103           1          97         103
         104           1          98         104
         105           1          99         105
         106           1         100         106
         107           1         101         107
         108           1         102         108
         109           2         109         110
         110           2         110         111
         111           2         111         112
         112           2         112         113
         113           2         113         114
         114           2         114         109
         115           1         109         115
         116           1         110         116
         117           1         111         117
         118           1         112         118
         119           1         113         119
         120           1         114         120

Angles

           1           2           2           1           6
           2           1           2           1           7
           3           1           6           1           7
           4           2           1           2           3
           5           1           1           2           8
           6           1           3           2           8
           7           2           2           3           4
           8           1           2           3           9
           9           1           4           3           9
          10           2           3           4           5
          11           1           3           4          10
          12           1           5           4          10
          13           2           4           5           6
          14           1           4           5          11
          15           1           6           5          11
          16           2           5           6           1
          17           1           5           6          12
          18           1           1           6          12
          19           2          14          13          18
          20           1          14          13          19
          21           1          18          13          19
          22           2          13          14          15
          23           1          13          14          20
          24           1          15          14          20
          25           2          14          15          16
          26           1          14          15          21
          27           1          16          15          21
          28           2          15          16          17
          29           1          15          16          22
          30           1          17          16          22
          31           2          16          17          18
          32           1          16          17          23
          33           1          18          17          23
          34           2          17          18          13
          35           1          17          18          24
          36           1          13          18          24
          37           2          26          25          30
          38           1          26          25          31
          39           1          30          25          31
          40           2          25          26          27
          41           1          25          26          32
          42           1          27          26          32
          43           2          26          27          28
          44           1          26          27          33
          45           1          28          27          33
          46           2          27          28          29
          47           1          27          28          34
          48           1          29          28          34
          49           2          28          29          30
          50           1          28          29          35
          51           1          30          29          35
          52           2          29          30          25
          53           1          29          30          36
          54           1          25          30          36
          55           2          38          37          42
          56           1          38          37          43
          57           1          42          37          43
          58           2          37          38          39
          59           1          37          38          44
          60           1          39          38          44
          61           2          38          39          40
          62           1          38          39          45
          63           1          40          39          45
          64           2          39          40          41
          65           1          39          40          46
          66           1          41          40          46
          67           2          40          41          42
          68           1          40          41          47
          69           1          42          41          47
          70           2          41          42          37
          71           1          41          42          48
          72           1          37          42          48
          73           2          50          49          54
          74           1          50          49          55
          75           1          54          49          55
          76           2          49          50          51
          77           1          49          50          56
          78           1          51          50          56
          79           2          50          51          52
          80           1          50          51          57
          81           1          52          51          57
          82           2          51          52          53
          83           1          51          52          58
          84           1          53          52          58
          85           2          52          53          54
          86           1          52          53          59
          87           1          54          53          59
          88           2          53          54          49
          89           1          53          54          60
          90           1          49          54          60
          91           2          62          61          66
          92           1          62          61          67
          93           1          66          61          67
          94           2          61          62          63
          95           1          61          62          68
          96           1          63          62          68
          97           2          62          63          64
          98           1          62          63          69
          99           1          64          63          69
         100           2          63          64          65
         101           1          63          64          70
         102           1          65          64          70
         103           2          64          65          66
         104           1          64          65          71
         105           1          66          65          71
         106           2          65          66          61
         107           1          65          66          72
         108           1          61          66          72
         109           2          74          73          78
         110           1          74          73          79
         111           1          78          73          79
         112           2          73          74          75
         113           1          73          74          80
         114           1          75          74          80
         115           2          74          75          76
         116           1          74          75          81
         117           1          76          75          81
         118           2          75          76          77
         119           1          75          76          82
         120           1          77          76          82
         121           2          76          77          78
         122           1          76          77          83
         123           1          78          77          83
         124           2          77          78          73
         125           1          77          78          84
         126           1          73          78          84
         127           2          86          85          90
         128           1          86          85          91
         129           1          90          85          91
         130           2          85          86          87
         131           1          85          86          92
         132           1          87          86          92
         133           2          86          87          88
         134           1          86          87          93
         135           1          88          87          93
         136           2          87          88          89
         137           1          87          88          94
         138           1          89          88          94
         139           2          88          89          90
         140           1          88          89          95
         141           1          90          89          95
         142           2          89          90          85
         143           1          89          90          96
         144           1          85          90          96
         145           2          98          97         102
         146           1          98          97         103
         147           1         102          97         103
         148           2          97          98          99
         149           1          97          98         104
         150           1          99          98         104
         151           2          98          99         100
         152           1          98          99         105
         153           1         100          99         105
         154           2          99         100         101
         155           1          99         100         106
         156           1         101         100         106
         157           2         100         101         102
         158           1         100         101         107
         159           1         102         101         107
         160           2         101         102          97
         161           1         101         102         108
         162           1          97         102         108
         163           2         110         109         114
         164           1         110         109         115
         165           1         114         109         115
         166           2         109         110         111
         167           1         109         110         116
         168           1         111         110         116
         169           2         110         111         112
         170           1         110         111         117
         171           1         112         111         117
         172           2         111         112         113
         173           1         111         112         118
         174           1         113         112         118
         175           2         112         113         114
         176           1         112         113         119
         177           1         114         113         119
         178           2         113         114         109
         179           1         113         114         120
         180           1         109         114         120

Dihedrals

           1           3           6           1           2           3
           2           2           6           1           2           8
           3           2           7           1           2           3
           4           1           7           1           2           8
           5           3           2           1           6           5
           6           2           2           1           6          12
           7           2           7           1           6           5
           8           1           7           1           6          12