dict_items([('SDS', 10), ('SOD', 10), ('SOL', 20)])

80 atoms
40 bonds
30 angles
0 dihedrals
0 impropers

5 atom types
3 bond types
3 angle types
0 dihedral types
0 improper types

0    39.000 xlo xhi
0    39.000 ylo yhi
0    40.000 zlo zhi

Masses

   1    43.088  #    CT  0.0000
   2    42.080  #    CM  0.0000
   3    96.062  #   SO4 -1.0000
   4    77.036  #   SOD  1.0000
   5    54.046  #     W  0.0000

PairIJ Coeffs

   1    1     lj9_6  0.469  4.585   # CT CT
   1    2     lj9_6  0.444  4.545   # CT CM
   2    2     lj9_6  0.420  4.506   # CM CM
   1    3     lj9_6  0.405  4.453   # CT -SU
   2    3     lj9_6  0.383  4.413   # CM -SU
   3    3     lj9_6  0.700  4.321   # -SU -SU
   1    4     lj12_4  0.360  4.478   # CT +SOD
   2    4     lj12_4  0.340  4.439   # CM +SOD
   3    4     lj12_4  1.100  4.100   # -SU +SOD
   4    4     lj12_4  0.350  4.371   # +SOD +SOD
   1    5     lj12_4  0.360  4.478   # CT W
   2    5     lj12_4  0.340  4.439   # CM W
   3    5     lj12_4  1.100  4.100   # -SU W
   4    5     lj12_4  0.895  4.371   # W +SOD
   5    5     lj12_4  0.895  4.371   # W W

Bond Coeffs

   1    6.16  3.65  # CT-CM
   2    6.16  3.64  # CM-CM
   3    11.0   3.63  # CM-SU

Angle Coeffs

   1    1.19   175  # CT-CM-CM
   2    1.19   173  # CM-CM-CM
   3    1.1    178  # CM-CM-SU

Atoms

       1       1       1   0.000    29.131    27.284    19.882  # CT SDS
       2       1       2   0.000    29.516    25.371    23.906  # CM SDS
       3       1       2   0.000    32.290    27.133    21.760  # CM SDS
       4       1       2   0.000    33.547    29.425    18.835  # CM SDS
       5       1       3  -1.000    34.241    30.311    15.768  # SU SDS
       6       2       1   0.000    12.299    12.320    22.246  # CT SDS
       7       2       2   0.000    14.193    16.114    23.669  # CM SDS
       8       2       2   0.000    15.750    12.515    23.504  # CM SDS
       9       2       2   0.000    15.854     8.780    22.309  # CM SDS
      10       2       3  -1.000    15.015     5.626    22.156  # SU SDS
      11       3       1   0.000    20.176    23.358    21.805  # CT SDS
      12       3       2   0.000    18.883    21.896    17.781  # CM SDS
      13       3       2   0.000    20.156    25.468    18.793  # CM SDS
      14       3       2   0.000    21.909    28.028    21.194  # CM SDS
      15       3       3  -1.000    22.281    29.979    23.788  # SU SDS
      16       4       1   0.000    28.717    12.887     7.781  # CT SDS
      17       4       2   0.000    31.714     9.697     8.697  # CM SDS
      18       4       2   0.000    32.298    13.556     8.285  # CM SDS
      19       4       2   0.000    31.111    17.289     8.061  # CM SDS
      20       4       3  -1.000    29.762    19.963     6.756  # SU SDS
      21       5       1   0.000    35.781     6.334    29.405  # CT SDS
      22       5       2   0.000    35.617     1.889    29.863  # CM SDS
      23       5       2   0.000    32.875     4.545    30.775  # CM SDS
      24       5       2   0.000    31.257     8.116    30.645  # CM SDS
      25       5       3  -1.000    30.881    11.295    31.299  # SU SDS
      26       6       1   0.000    14.006    24.415    37.684  # CT SDS
      27       6       2   0.000    16.776    27.870    37.059  # CM SDS
      28       6       2   0.000    12.854    27.873    37.189  # CM SDS
      29       6       2   0.000     9.361    26.286    38.009  # CM SDS
      30       6       3  -1.000     6.781    24.309    37.678  # SU SDS
      31       7       1   0.000    21.795    36.597    33.454  # CT SDS
      32       7       2   0.000    24.064    37.568    29.725  # CM SDS
      33       7       2   0.000    20.179    37.531    30.285  # CM SDS
      34       7       2   0.000    16.947    37.481    32.507  # CM SDS
      35       7       3  -1.000    14.651    36.259    34.484  # SU SDS
      36       8       1   0.000    36.709    22.318    12.441  # CT SDS
      37       8       2   0.000    36.366    20.483    16.506  # CM SDS
      38       8       2   0.000    36.609    24.282    15.549  # CM SDS
      39       8       2   0.000    36.456    27.294    13.040  # CM SDS
      40       8       3  -1.000    37.418    29.275    10.627  # SU SDS
      41       9       1   0.000    25.513    30.720    10.795  # CT SDS
      42       9       2   0.000    21.619    32.827    10.159  # CM SDS
      43       9       2   0.000    25.182    34.382    10.701  # CM SDS
      44       9       2   0.000    29.099    34.230    10.860  # CM SDS
      45       9       3  -1.000    32.054    33.517    12.055  # SU SDS
      46      10       1   0.000    23.331    23.083    27.735  # CT SDS
      47      10       2   0.000    23.833    26.537    30.530  # CM SDS
      48      10       2   0.000    23.072    22.785    31.391  # CM SDS
      49      10       2   0.000    22.854    18.959    30.553  # CM SDS
      50      10       3  -1.000    21.677    16.211    29.233  # SU SDS
      51      11       4   1.000     0.312    35.856     2.906  # SOD SOD
      52      12       4   1.000     9.315    24.740     3.727  # SOD SOD
      53      13       4   1.000    34.093    17.685    13.510  # SOD SOD
      54      14       4   1.000    20.519    18.749     6.906  # SOD SOD
      55      15       4   1.000    20.617     7.544    23.010  # SOD SOD
      56      16       4   1.000     1.079     9.937     5.468  # SOD SOD
      57      17       4   1.000    13.132    27.653    24.862  # SOD SOD
      58      18       4   1.000    12.152    21.895    11.306  # SOD SOD
      59      19       4   1.000     0.003     6.602    12.014  # SOD SOD
      60      20       4   1.000     0.616    18.643     4.668  # SOD SOD
      61      21       5   0.000    18.427    14.865     0.909  # W SOL
      62      22       5   0.000    13.440    15.324    18.538  # W SOL
      63      23       5   0.000     1.471    23.695    11.844  # W SOL
      64      24       5   0.000     8.527    25.766    26.798  # W SOL
      65      25       5   0.000     2.797    12.487    27.104  # W SOL
      66      26       5   0.000     8.751     7.080    22.678  # W SOL
      67      27       5   0.000     0.685    35.507     7.468  # W SOL
      68      28       5   0.000    12.433    34.754    30.389  # W SOL
      69      29       5   0.000    11.512    17.565    31.173  # W SOL
      70      30       5   0.000     0.648    17.376    28.065  # W SOL
      71      31       5   0.000     3.751    19.712    31.934  # W SOL
      72      32       5   0.000    13.830    30.771    34.022  # W SOL
      73      33       5   0.000    17.914    36.072    25.868  # W SOL
      74      34       5   0.000     5.907    34.621    13.839  # W SOL
      75      35       5   0.000    17.366    25.851    26.911  # W SOL
      76      36       5   0.000    14.954     9.189    34.596  # W SOL
      77      37       5   0.000     9.280    20.483    24.258  # W SOL
      78      38       5   0.000     5.580    36.640    27.822  # W SOL
      79      39       5   0.000    31.172     1.654    14.793  # W SOL
      80      40       5   0.000    11.909     4.274    29.558  # W SOL

Bonds

       1       1       1       2  # CT-CM SDS
       2       2       2       3  # CM-CM SDS
       3       2       3       4  # CM-CM SDS
       4       3       4       5  # CM-SU SDS
       5       1       6       7  # CT-CM SDS
       6       2       7       8  # CM-CM SDS
       7       2       8       9  # CM-CM SDS
       8       3       9      10  # CM-SU SDS
       9       1      11      12  # CT-CM SDS
      10       2      12      13  # CM-CM SDS
      11       2      13      14  # CM-CM SDS
      12       3      14      15  # CM-SU SDS
      13       1      16      17  # CT-CM SDS
      14       2      17      18  # CM-CM SDS
      15       2      18      19  # CM-CM SDS
      16       3      19      20  # CM-SU SDS
      17       1      21      22  # CT-CM SDS
      18       2      22      23  # CM-CM SDS
      19       2      23      24  # CM-CM SDS
      20       3      24      25  # CM-SU SDS
      21       1      26      27  # CT-CM SDS
      22       2      27      28  # CM-CM SDS
      23       2      28      29  # CM-CM SDS
      24       3      29      30  # CM-SU SDS
      25       1      31      32  # CT-CM SDS
      26       2      32      33  # CM-CM SDS
      27       2      33      34  # CM-CM SDS
      28       3      34      35  # CM-SU SDS
      29       1      36      37  # CT-CM SDS
      30       2      37      38  # CM-CM SDS
      31       2      38      39  # CM-CM SDS
      32       3      39      40  # CM-SU SDS
      33       1      41      42  # CT-CM SDS
      34       2      42      43  # CM-CM SDS
      35       2      43      44  # CM-CM SDS
      36       3      44      45  # CM-SU SDS
      37       1      46      47  # CT-CM SDS
      38       2      47      48  # CM-CM SDS
      39       2      48      49  # CM-CM SDS
      40       3      49      50  # CM-SU SDS

Angles

       1       1       1       2       3  # CT-CM-CM SDS
       2       2       2       3       4  # CM-CM-CM SDS
       3       3       3       4       5  # CM-CM-SU SDS
       4       1       6       7       8  # CT-CM-CM SDS
       5       2       7       8       9  # CM-CM-CM SDS
       6       3       8       9      10  # CM-CM-SU SDS
       7       1      11      12      13  # CT-CM-CM SDS
       8       2      12      13      14  # CM-CM-CM SDS
       9       3      13      14      15  # CM-CM-SU SDS
      10       1      16      17      18  # CT-CM-CM SDS
      11       2      17      18      19  # CM-CM-CM SDS
      12       3      18      19      20  # CM-CM-SU SDS
      13       1      21      22      23  # CT-CM-CM SDS
      14       2      22      23      24  # CM-CM-CM SDS
      15       3      23      24      25  # CM-CM-SU SDS
      16       1      26      27      28  # CT-CM-CM SDS
      17       2      27      28      29  # CM-CM-CM SDS
      18       3      28      29      30  # CM-CM-SU SDS
      19       1      31      32      33  # CT-CM-CM SDS
      20       2      32      33      34  # CM-CM-CM SDS
      21       3      33      34      35  # CM-CM-SU SDS
      22       1      36      37      38  # CT-CM-CM SDS
      23       2      37      38      39  # CM-CM-CM SDS
      24       3      38      39      40  # CM-CM-SU SDS
      25       1      41      42      43  # CT-CM-CM SDS
      26       2      42      43      44  # CM-CM-CM SDS
      27       3      43      44      45  # CM-CM-SU SDS
      28       1      46      47      48  # CT-CM-CM SDS
      29       2      47      48      49  # CM-CM-CM SDS
      30       3      48      49      50  # CM-CM-SU SDS
