created by fftool

185 atoms
180 bonds
195 angles
230 dihedrals
18 atom types
16 bond types
13 angle types
20 dihedral types
0.000000 30.000000 xlo xhi
0.000000 30.000000 ylo yhi
0.000000 30.000000 zlo zhi

Masses

   1   13.607  # NA DC
   2   11.611  # CR DC
   3   11.611  # CW DC
   4   11.611  # C1 DC
   5    1.008  # HCR
   6    1.008  # HCW
   7    1.008  # H1
   8   11.611  # CE DC
   9    1.008  # HC
  10   10.411  # B DC
  11   18.598  # FB DC
  12    0.400  # NA DP
  13    0.400  # CR DP
  14    0.400  # CW DP
  15    0.400  # C1 DP
  16    0.400  # CE DP
  17    0.400  # B DP
  18    0.400  # FB DP

Bond Coeffs

   1   477.055449     1.315000  # CR-NA
   2   427.103250     1.378000  # CW-NA
   3   520.076482     1.341000  # CW-CW
   4   336.998088     1.466000  # NA-CT
   5   339.985660     1.080000  # CR-HA
   6   339.985660     1.080000  # CW-HA
   7   339.985660     1.090000  # HC-CT
   8   267.925430     1.529000  # CT-CT
   9   386.591778     1.394000  # B-F
  10   500.000000     0.000000  # NA DC-DP
  11   500.000000     0.000000  # CR DC-DP
  12   500.000000     0.000000  # CW DC-DP
  13   500.000000     0.000000  # C1 DC-DP
  14   500.000000     0.000000  # CE DC-DP
  15   500.000000     0.000000  # B DC-DP
  16   500.000000     0.000000  # FB DC-DP

Angle Coeffs

   1    70.004780   126.400000  # CR-NA-CT
   2    70.004780   108.000000  # CW-NA-CR
   3    70.004780   125.600000  # CW-NA-CT
   4    70.004780   109.800000  # NA-CR-NA
   5    35.002390   125.100000  # NA-CR-HA
   6    70.004780   107.100000  # NA-CW-CW
   7    35.002390   122.000000  # NA-CW-HA
   8    35.002390   130.900000  # CW-CW-HA
   9    37.500000   110.700000  # NA-CT-HC
  10    32.994742   107.800000  # HC-CT-HC
  11    58.353250   112.700000  # NA-CT-CT
  12    37.500000   110.700000  # CT-CT-HC
  13    80.007170   109.500000  # F-B-F

Dihedral Coeffs

   1     0.000000     4.651052     0.000000     0.000000  # CT-NA-CR-NA
   2     0.000000     4.651052     0.000000     0.000000  # CW-NA-CR-NA
   3     0.000000     4.651052     0.000000     0.000000  # CT-NA-CR-HA
   4     0.000000     4.651052     0.000000     0.000000  # CW-NA-CR-HA
   5     0.000000     3.000000     0.000000     0.000000  # CR-NA-CW-CW
   6     0.000000     3.000000     0.000000     0.000000  # CT-NA-CW-CW
   7     0.000000     3.000000     0.000000     0.000000  # CR-NA-CW-HA
   8     0.000000     3.000000     0.000000     0.000000  # CT-NA-CW-HA
   9     0.000000    10.750478     0.000000     0.000000  # NA-CW-CW-HA
  10     0.000000    10.750478     0.000000     0.000000  # HA-CW-CW-HA
  11     0.000000    10.750478     0.000000     0.000000  # NA-CW-CW-NA
  12     0.000000     0.000000     0.000000     0.000000  # CR-NA-CT-HC
  13     0.000000     0.000000     0.124044     0.000000  # CW-NA-CT-HC
  14    -1.259345     0.000000     0.000000     0.000000  # CR-NA-CT-CT
  15    -1.709728     1.459465     0.189747     0.000000  # CW-NA-CT-CT
  16     0.000000     0.000000     0.087715     0.000000  # NA-CT-CT-HC
  17     0.000000     0.000000     0.300000     0.000000  # HC-CT-CT-HC
  18     0.000000     2.000000     0.000000     0.000000  # CR-CW-NA-CT
  19     0.000000     2.200000     0.000000     0.000000  # NA-NA-CR-HA
  20     0.000000     2.200000     0.000000     0.000000  # NA-CW-CW-HA

Atoms

      1       1    1   2.057313   12.391    9.157   12.281  # NA c2c1im+ DC
      2       1   12  -1.907313   12.355    9.192   12.307  # NA c2c1im+ DP
      3       1    2   1.976039   13.429    9.921   12.017  # CR c2c1im+ DC
      4       1   13  -2.086039   13.404    9.921   12.012  # CR c2c1im+ DP
      5       1    1   2.057313   14.133   10.109   13.111  # NA c2c1im+ DC
      6       1   12  -1.907313   14.148   10.138   13.071  # NA c2c1im+ DP
      7       1    3   1.956039   13.515    9.429   14.138  # CW c2c1im+ DC
      8       1   14  -2.086039   13.468    9.462   14.131  # CW c2c1im+ DP
      9       1    3   1.956039   12.429    8.836   13.620  # CW c2c1im+ DC
     10       1   14  -2.086039   12.456    8.786   13.615  # CW c2c1im+ DP
     11       1    4   2.274943   11.496    8.561   11.285  # C1 c2c1im+ DC
     12       1   15  -2.444943   11.518    8.534   11.330  # C1 c2c1im+ DP
     13       1    5   0.210000   13.754   10.207   11.028  # HCR c2c1im+
     14       1    4   2.067196   15.461   10.725   13.194  # C1 c2c1im+ DC
     15       1   15  -2.237196   15.501   10.678   13.146  # C1 c2c1im+ DP
     16       1    6   0.210000   13.916    9.256   15.126  # HCW c2c1im+
     17       1    6   0.210000   11.804    8.104   14.109  # HCW c2c1im+
     18       1    7   0.130000   10.460    8.744   11.571  # H1 c2c1im+
     19       1    7   0.130000   11.560    9.124   10.354  # H1 c2c1im+
     20       1    7   0.130000   11.673    7.487   11.234  # H1 c2c1im+
     21       1    8   2.394943   15.904   11.162   11.807  # CE c2c1im+ DC
     22       1   16  -2.444943   15.908   11.206   11.795  # CE c2c1im+ DP
     23       1    7   0.130000   15.419   11.593   13.852  # H1 c2c1im+
     24       1    7   0.130000   16.173   10.002   13.591  # H1 c2c1im+
     25       1    9   0.060000   16.802   11.774   11.888  # HC c2c1im+
     26       1    9   0.060000   16.118   10.283   11.199  # HC c2c1im+
     27       1    9   0.060000   15.110   11.743   11.338  # HC c2c1im+
     28       2    1   2.057313   24.186    8.453   19.351  # NA c2c1im+ DC
     29       2   12  -1.907313   24.157    8.445   19.303  # NA c2c1im+ DP
     30       2    2   1.976039   23.553    7.450   19.918  # CR c2c1im+ DC
     31       2   13  -2.086039   23.525    7.443   19.918  # CR c2c1im+ DP
     32       2    1   2.057313   22.386    7.856   20.367  # NA c2c1im+ DC
     33       2   12  -1.907313   22.359    7.829   20.339  # NA c2c1im+ DP
     34       2    3   1.956039   22.260    9.197   20.073  # CW c2c1im+ DC
     35       2   14  -2.086039   22.256    9.176   20.025  # CW c2c1im+ DP
     36       2    3   1.956039   23.382    9.568   19.439  # CW c2c1im+ DC
     37       2   14  -2.086039   23.415    9.574   19.454  # CW c2c1im+ DP
     38       2    4   2.274943   25.414    8.347   18.557  # C1 c2c1im+ DC
     39       2   15  -2.444943   25.382    8.396   18.593  # C1 c2c1im+ DP
     40       2    5   0.210000   23.859    6.415   19.870  # HCR c2c1im+
     41       2    4   2.067196   21.306    7.004   20.874  # C1 c2c1im+ DC
     42       2   15  -2.237196   21.268    6.988   20.897  # C1 c2c1im+ DP
     43       2    6   0.210000   21.365    9.794   20.170  # HCW c2c1im+
     44       2    6   0.210000   23.553   10.509   18.937  # HCW c2c1im+
     45       2    7   0.130000   26.132    9.092   18.897  # H1 c2c1im+
     46       2    7   0.130000   25.933    7.423   18.811  # H1 c2c1im+
     47       2    7   0.130000   25.183    8.519   17.505  # H1 c2c1im+
     48       2    8   2.394943   21.749    5.551   20.844  # CE c2c1im+ DC
     49       2   16  -2.444943   21.771    5.594   20.836  # CE c2c1im+ DP
     50       2    7   0.130000   21.068    7.290   21.899  # H1 c2c1im+
     51       2    7   0.130000   20.421    7.127   20.249  # H1 c2c1im+
     52       2    9   0.060000   21.025    4.938   21.380  # HC c2c1im+
     53       2    9   0.060000   21.816    5.212   19.810  # HC c2c1im+
     54       2    9   0.060000   22.726    5.458   21.319  # HC c2c1im+
     55       3    1   2.057313    5.049   14.705   25.626  # NA c2c1im+ DC
     56       3   12  -1.907313    5.082   14.722   25.606  # NA c2c1im+ DP
     57       3    2   1.976039    4.648   13.501   25.280  # CR c2c1im+ DC
     58       3   13  -2.086039    4.656   13.539   25.315  # CR c2c1im+ DP
     59       3    1   2.057313    5.655   12.659   25.348  # NA c2c1im+ DC
     60       3   12  -1.907313    5.656   12.668   25.301  # NA c2c1im+ DP
     61       3    3   1.956039    6.768   13.359   25.761  # CW c2c1im+ DC
     62       3   14  -2.086039    6.742   13.388   25.752  # CW c2c1im+ DP
     63       3    3   1.956039    6.390   14.634   25.934  # CW c2c1im+ DC
     64       3   14  -2.086039    6.358   14.638   25.954  # CW c2c1im+ DP
     65       3    4   2.274943    4.177   15.857   25.871  # C1 c2c1im+ DC
     66       3   15  -2.444943    4.194   15.844   25.865  # C1 c2c1im+ DP
     67       3    5   0.210000    3.619   13.208   25.133  # HCR c2c1im+
     68       3    4   2.067196    5.575   11.199   25.242  # C1 c2c1im+ DC
     69       3   15  -2.237196    5.575   11.227   25.244  # C1 c2c1im+ DP
     70       3    6   0.210000    7.716   12.937   26.060  # HCW c2c1im+
     71       3    6   0.210000    6.972   15.418   26.394  # HCW c2c1im+
     72       3    7   0.130000    4.558   16.724   25.332  # H1 c2c1im+
     73       3    7   0.130000    3.221   15.703   25.372  # H1 c2c1im+
     74       3    7   0.130000    4.155   16.075   26.939  # H1 c2c1im+
     75       3    8   2.394943    4.132   10.787   24.997  # CE c2c1im+ DC
     76       3   16  -2.444943    4.121   10.786   24.950  # CE c2c1im+ DP
     77       3    7   0.130000    6.195   10.860   24.412  # H1 c2c1im+
     78       3    7   0.130000    5.929   10.746   26.168  # H1 c2c1im+
     79       3    9   0.060000    4.094    9.728   24.742  # HC c2c1im+
     80       3    9   0.060000    3.545   10.964   25.898  # HC c2c1im+
     81       3    9   0.060000    3.721   11.373   24.174  # HC c2c1im+
     82       4    1   2.057313    7.257   19.389   26.162  # NA c2c1im+ DC
     83       4   12  -1.907313    7.211   19.410   26.210  # NA c2c1im+ DP
     84       4    2   1.976039    7.358   20.566   25.583  # CR c2c1im+ DC
     85       4   13  -2.086039    7.367   20.555   25.550  # CR c2c1im+ DP
     86       4    1   2.057313    6.158   21.054   25.355  # NA c2c1im+ DC
     87       4   12  -1.907313    6.158   21.102   25.382  # NA c2c1im+ DP
     88       4    3   1.956039    5.233   20.141   25.812  # CW c2c1im+ DC
     89       4   14  -2.086039    5.237   20.177   25.785  # CW c2c1im+ DP
     90       4    3   1.956039    5.917   19.104   26.315  # CW c2c1im+ DC
     91       4   14  -2.086039    5.919   19.149   26.323  # CW c2c1im+ DP
     92       4    4   2.274943    8.364   18.632   26.754  # C1 c2c1im+ DC
     93       4   15  -2.444943    8.360   18.609   26.759  # C1 c2c1im+ DP
     94       4    5   0.210000    8.274   21.126   25.470  # HCR c2c1im+
     95       4    4   2.067196    5.845   22.417   24.916  # C1 c2c1im+ DC
     96       4   15  -2.237196    5.891   22.368   24.945  # C1 c2c1im+ DP
     97       4    6   0.210000    4.169   20.301   25.911  # HCW c2c1im+
     98       4    6   0.210000    5.511   18.284   26.889  # HCW c2c1im+
     99       4    7   0.130000    8.331   17.602   26.399  # H1 c2c1im+
    100       4    7   0.130000    9.307   18.972   26.326  # H1 c2c1im+
    101       4    7   0.130000    8.273   18.645   27.841  # H1 c2c1im+
    102       4    8   2.394943    7.136   23.196   24.720  # CE c2c1im+ DC
    103       4   16  -2.444943    7.168   23.235   24.744  # CE c2c1im+ DP
    104       4    7   0.130000    5.297   22.380   23.975  # H1 c2c1im+
    105       4    7   0.130000    5.234   22.911   25.672  # H1 c2c1im+
    106       4    9   0.060000    6.917   24.144   24.229  # HC c2c1im+
    107       4    9   0.060000    7.595   23.388   25.690  # HC c2c1im+
    108       4    9   0.060000    7.821   22.616   24.102  # HC c2c1im+
    109       5    1   2.057313   22.912   10.823   26.535  # NA c2c1im+ DC
    110       5   12  -1.907313   22.943   10.825   26.541  # NA c2c1im+ DP
    111       5    2   1.976039   22.844    9.549   26.220  # CR c2c1im+ DC
    112       5   13  -2.086039   22.837    9.504   26.257  # CR c2c1im+ DP
    113       5    1   2.057313   21.586    9.185   26.101  # NA c2c1im+ DC
    114       5   12  -1.907313   21.593    9.155   26.101  # NA c2c1im+ DP
    115       5    3   1.956039   20.799   10.287   26.354  # CW c2c1im+ DC
    116       5   14  -2.086039   20.797   10.273   26.338  # CW c2c1im+ DP
    117       5    3   1.956039   21.625   11.308   26.624  # CW c2c1im+ DC
    118       5   14  -2.086039   21.629   11.321   26.636  # CW c2c1im+ DP
    119       5    4   2.274943   24.133   11.635   26.550  # C1 c2c1im+ DC
    120       5   15  -2.444943   24.128   11.588   26.523  # C1 c2c1im+ DP
    121       5    5   0.210000   23.685    8.935   25.930  # HCR c2c1im+
    122       5    4   2.067196   21.098    7.911   25.564  # C1 c2c1im+ DC
    123       5   15  -2.237196   21.065    7.920   25.600  # C1 c2c1im+ DP
    124       5    6   0.210000   19.734   10.366   26.193  # HCW c2c1im+
    125       5    6   0.210000   21.350   12.349   26.719  # HCW c2c1im+
    126       5    7   0.130000   24.187   12.193   27.485  # H1 c2c1im+
    127       5    7   0.130000   25.001   10.984   26.644  # H1 c2c1im+
    128       5    7   0.130000   24.117   12.332   25.713  # H1 c2c1im+
    129       5    8   2.394943   22.280    7.031   25.192  # CE c2c1im+ DC
    130       5   16  -2.444943   22.310    7.061   25.223  # CE c2c1im+ DP
    131       5    7   0.130000   20.493    7.407   26.318  # H1 c2c1im+
    132       5    7   0.130000   20.491    8.098   24.678  # H1 c2c1im+
    133       5    9   0.060000   21.927    6.026   24.962  # HC c2c1im+
    134       5    9   0.060000   22.782    7.448   24.319  # HC c2c1im+
    135       5    9   0.060000   22.979    6.988   26.027  # HC c2c1im+
    136       6   10   2.279327   13.858    2.788   25.907  # B BF4- DC
    137       6   17  -1.319327   13.834    2.822   25.924  # B BF4- DP
    138       6   11   0.881919   13.767    4.159   25.675  # FB BF4- DC
    139       6   18  -1.371919   13.725    4.111   25.626  # FB BF4- DP
    140       6   11   0.881919   13.142    2.461   27.057  # FB BF4- DC
    141       6   18  -1.371919   13.168    2.436   27.018  # FB BF4- DP
    142       6   11   0.881919   13.329    2.095   24.819  # FB BF4- DC
    143       6   18  -1.371919   13.341    2.080   24.776  # FB BF4- DP
    144       6   11   0.881919   15.196    2.433   26.076  # FB BF4- DC
    145       6   18  -1.371919   15.162    2.436   26.043  # FB BF4- DP
    146       7   10   2.279327   11.888   13.267   26.078  # B BF4- DC
    147       7   17  -1.319327   11.866   13.288   26.073  # B BF4- DP
    148       7   11   0.881919   10.977   12.643   25.227  # FB BF4- DC
    149       7   18  -1.371919   10.960   12.640   25.180  # FB BF4- DP
    150       7   11   0.881919   13.171   13.168   25.540  # FB BF4- DC
    151       7   18  -1.371919   13.159   13.160   25.509  # FB BF4- DP
    152       7   11   0.881919   11.547   14.611   26.219  # FB BF4- DC
    153       7   18  -1.371919   11.508   14.651   26.220  # FB BF4- DP
    154       7   11   0.881919   11.860   12.647   27.326  # FB BF4- DC
    155       7   18  -1.371919   11.831   12.658   27.358  # FB BF4- DP
    156       8   10   2.279327   18.501    9.215   15.737  # B BF4- DC
    157       8   17  -1.319327   18.453    9.167   15.702  # B BF4- DP
    158       8   11   0.881919   19.808    8.795   15.495  # FB BF4- DC
    159       8   18  -1.371919   19.830    8.761   15.516  # FB BF4- DP
    160       8   11   0.881919   18.280   10.437   15.105  # FB BF4- DC
    161       8   18  -1.371919   18.298   10.442   15.077  # FB BF4- DP
    162       8   11   0.881919   17.608    8.267   15.240  # FB BF4- DC
    163       8   18  -1.371919   17.656    8.297   15.242  # FB BF4- DP
    164       8   11   0.881919   18.306    9.361   17.110  # FB BF4- DC
    165       8   18  -1.371919   18.278    9.376   17.099  # FB BF4- DP
    166       9   10   2.279327   19.751   13.320   14.851  # B BF4- DC
    167       9   17  -1.319327   19.759   13.302   14.864  # B BF4- DP
    168       9   11   0.881919   19.272   14.412   15.572  # FB BF4- DC
    169       9   18  -1.371919   19.228   14.392   15.619  # FB BF4- DP
    170       9   11   0.881919   20.299   12.386   15.729  # FB BF4- DC
    171       9   18  -1.371919   20.336   12.367   15.765  # FB BF4- DP
    172       9   11   0.881919   18.703   12.733   14.144  # FB BF4- DC
    173       9   18  -1.371919   18.684   12.777   14.168  # FB BF4- DP
    174       9   11   0.881919   20.731   13.747   13.957  # FB BF4- DC
    175       9   18  -1.371919   20.723   13.722   13.907  # FB BF4- DP
    176      10   10   2.279327   21.275   24.849   15.499  # B BF4- DC
    177      10   17  -1.319327   21.313   24.803   15.531  # B BF4- DP
    178      10   11   0.881919   20.965   25.850   14.579  # FB BF4- DC
    179      10   18  -1.371919   21.011   25.857   14.546  # FB BF4- DP
    180      10   11   0.881919   20.287   24.797   16.481  # FB BF4- DC
    181      10   18  -1.371919   20.324   24.844   16.501  # FB BF4- DP
    182      10   11   0.881919   21.344   23.621   14.844  # FB BF4- DC
    183      10   18  -1.371919   21.345   23.608   14.829  # FB BF4- DP
    184      10   11   0.881919   22.505   25.128   16.093  # FB BF4- DC
    185      10   18  -1.371919   22.475   25.146   16.086  # FB BF4- DP

Bonds

      1    1       3       1  # CR-NA
      2    1       5       3  # CR-NA
      3    2       7       5  # CW-NA
      4    3       9       7  # CW-CW
      5    4      11       1  # NA-CT
      6    5      13       3  # CR-HA
      7    4      14       5  # NA-CT
      8    6      16       7  # CW-HA
      9    6      17       9  # CW-HA
     10    7      18      11  # HC-CT
     11    7      19      11  # HC-CT
     12    7      20      11  # HC-CT
     13    8      21      14  # CT-CT
     14    7      23      14  # HC-CT
     15    7      24      14  # HC-CT
     16    7      25      21  # HC-CT
     17    7      26      21  # HC-CT
     18    7      27      21  # HC-CT
     19    2       9       1  # CW-NA
     20   10       1       2  # NA DC-DP
     21   11       3       4  # CR DC-DP
     22   10       5       6  # NA DC-DP
     23   12       7       8  # CW DC-DP
     24   12       9      10  # CW DC-DP
     25   13      11      12  # C1 DC-DP
     26   13      14      15  # C1 DC-DP
     27   14      21      22  # CE DC-DP
     28    1      30      28  # CR-NA
     29    1      32      30  # CR-NA
     30    2      34      32  # CW-NA
     31    3      36      34  # CW-CW
     32    4      38      28  # NA-CT
     33    5      40      30  # CR-HA
     34    4      41      32  # NA-CT
     35    6      43      34  # CW-HA
     36    6      44      36  # CW-HA
     37    7      45      38  # HC-CT
     38    7      46      38  # HC-CT
     39    7      47      38  # HC-CT
     40    8      48      41  # CT-CT
     41    7      50      41  # HC-CT
     42    7      51      41  # HC-CT
     43    7      52      48  # HC-CT
     44    7      53      48  # HC-CT
     45    7      54      48  # HC-CT
     46    2      36      28  # CW-NA
     47   10      28      29  # NA DC-DP
     48   11      30      31  # CR DC-DP
     49   10      32      33  # NA DC-DP
     50   12      34      35  # CW DC-DP
     51   12      36      37  # CW DC-DP
     52   13      38      39  # C1 DC-DP
     53   13      41      42  # C1 DC-DP
     54   14      48      49  # CE DC-DP
     55    1      57      55  # CR-NA
     56    1      59      57  # CR-NA
     57    2      61      59  # CW-NA
     58    3      63      61  # CW-CW
     59    4      65      55  # NA-CT
     60    5      67      57  # CR-HA
     61    4      68      59  # NA-CT
     62    6      70      61  # CW-HA
     63    6      71      63  # CW-HA
     64    7      72      65  # HC-CT
     65    7      73      65  # HC-CT
     66    7      74      65  # HC-CT
     67    8      75      68  # CT-CT
     68    7      77      68  # HC-CT
     69    7      78      68  # HC-CT
     70    7      79      75  # HC-CT
     71    7      80      75  # HC-CT
     72    7      81      75  # HC-CT
     73    2      63      55  # CW-NA
     74   10      55      56  # NA DC-DP
     75   11      57      58  # CR DC-DP
     76   10      59      60  # NA DC-DP
     77   12      61      62  # CW DC-DP
     78   12      63      64  # CW DC-DP
     79   13      65      66  # C1 DC-DP
     80   13      68      69  # C1 DC-DP
     81   14      75      76  # CE DC-DP
     82    1      84      82  # CR-NA
     83    1      86      84  # CR-NA
     84    2      88      86  # CW-NA
     85    3      90      88  # CW-CW
     86    4      92      82  # NA-CT
     87    5      94      84  # CR-HA
     88    4      95      86  # NA-CT
     89    6      97      88  # CW-HA
     90    6      98      90  # CW-HA
     91    7      99      92  # HC-CT
     92    7     100      92  # HC-CT
     93    7     101      92  # HC-CT
     94    8     102      95  # CT-CT
     95    7     104      95  # HC-CT
     96    7     105      95  # HC-CT
     97    7     106     102  # HC-CT
     98    7     107     102  # HC-CT
     99    7     108     102  # HC-CT
    100    2      90      82  # CW-NA
    101   10      82      83  # NA DC-DP
    102   11      84      85  # CR DC-DP
    103   10      86      87  # NA DC-DP
    104   12      88      89  # CW DC-DP
    105   12      90      91  # CW DC-DP
    106   13      92      93  # C1 DC-DP
    107   13      95      96  # C1 DC-DP
    108   14     102     103  # CE DC-DP
    109    1     111     109  # CR-NA
    110    1     113     111  # CR-NA
    111    2     115     113  # CW-NA
    112    3     117     115  # CW-CW
    113    4     119     109  # NA-CT
    114    5     121     111  # CR-HA
    115    4     122     113  # NA-CT
    116    6     124     115  # CW-HA
    117    6     125     117  # CW-HA
    118    7     126     119  # HC-CT
    119    7     127     119  # HC-CT
    120    7     128     119  # HC-CT
    121    8     129     122  # CT-CT
    122    7     131     122  # HC-CT
    123    7     132     122  # HC-CT
    124    7     133     129  # HC-CT
    125    7     134     129  # HC-CT
    126    7     135     129  # HC-CT
    127    2     117     109  # CW-NA
    128   10     109     110  # NA DC-DP
    129   11     111     112  # CR DC-DP
    130   10     113     114  # NA DC-DP
    131   12     115     116  # CW DC-DP
    132   12     117     118  # CW DC-DP
    133   13     119     120  # C1 DC-DP
    134   13     122     123  # C1 DC-DP
    135   14     129     130  # CE DC-DP
    136    9     138     136  # B-F
    137    9     140     136  # B-F
    138    9     142     136  # B-F
    139    9     144     136  # B-F
    140   15     136     137  # B DC-DP
    141   16     138     139  # FB DC-DP
    142   16     140     141  # FB DC-DP
    143   16     142     143  # FB DC-DP
    144   16     144     145  # FB DC-DP
    145    9     148     146  # B-F
    146    9     150     146  # B-F
    147    9     152     146  # B-F
    148    9     154     146  # B-F
    149   15     146     147  # B DC-DP
    150   16     148     149  # FB DC-DP
    151   16     150     151  # FB DC-DP
    152   16     152     153  # FB DC-DP
    153   16     154     155  # FB DC-DP
    154    9     158     156  # B-F
    155    9     160     156  # B-F
    156    9     162     156  # B-F
    157    9     164     156  # B-F
    158   15     156     157  # B DC-DP
    159   16     158     159  # FB DC-DP
    160   16     160     161  # FB DC-DP
    161   16     162     163  # FB DC-DP
    162   16     164     165  # FB DC-DP
    163    9     168     166  # B-F
    164    9     170     166  # B-F
    165    9     172     166  # B-F
    166    9     174     166  # B-F
    167   15     166     167  # B DC-DP
    168   16     168     169  # FB DC-DP
    169   16     170     171  # FB DC-DP
    170   16     172     173  # FB DC-DP
    171   16     174     175  # FB DC-DP
    172    9     178     176  # B-F
    173    9     180     176  # B-F
    174    9     182     176  # B-F
    175    9     184     176  # B-F
    176   15     176     177  # B DC-DP
    177   16     178     179  # FB DC-DP
    178   16     180     181  # FB DC-DP
    179   16     182     183  # FB DC-DP
    180   16     184     185  # FB DC-DP

Angles

      1    1       3       1      11  # CR-NA-CT
      2    2       3       1       9  # CW-NA-CR
      3    3      11       1       9  # CW-NA-CT
      4    4       1       3       5  # NA-CR-NA
      5    5       1       3      13  # NA-CR-HA
      6    5       5       3      13  # NA-CR-HA
      7    2       3       5       7  # CW-NA-CR
      8    1       3       5      14  # CR-NA-CT
      9    3       7       5      14  # CW-NA-CT
     10    6       5       7       9  # NA-CW-CW
     11    7       5       7      16  # NA-CW-HA
     12    8       9       7      16  # CW-CW-HA
     13    8       7       9      17  # CW-CW-HA
     14    6       7       9       1  # NA-CW-CW
     15    7      17       9       1  # NA-CW-HA
     16    9       1      11      18  # NA-CT-HC
     17    9       1      11      19  # NA-CT-HC
     18    9       1      11      20  # NA-CT-HC
     19   10      18      11      19  # HC-CT-HC
     20   10      18      11      20  # HC-CT-HC
     21   10      19      11      20  # HC-CT-HC
     22   11       5      14      21  # NA-CT-CT
     23    9       5      14      23  # NA-CT-HC
     24    9       5      14      24  # NA-CT-HC
     25   12      21      14      23  # CT-CT-HC
     26   12      21      14      24  # CT-CT-HC
     27   10      23      14      24  # HC-CT-HC
     28   12      14      21      25  # CT-CT-HC
     29   12      14      21      26  # CT-CT-HC
     30   12      14      21      27  # CT-CT-HC
     31   10      25      21      26  # HC-CT-HC
     32   10      25      21      27  # HC-CT-HC
     33   10      26      21      27  # HC-CT-HC
     34    1      30      28      38  # CR-NA-CT
     35    2      30      28      36  # CW-NA-CR
     36    3      38      28      36  # CW-NA-CT
     37    4      28      30      32  # NA-CR-NA
     38    5      28      30      40  # NA-CR-HA
     39    5      32      30      40  # NA-CR-HA
     40    2      30      32      34  # CW-NA-CR
     41    1      30      32      41  # CR-NA-CT
     42    3      34      32      41  # CW-NA-CT
     43    6      32      34      36  # NA-CW-CW
     44    7      32      34      43  # NA-CW-HA
     45    8      36      34      43  # CW-CW-HA
     46    8      34      36      44  # CW-CW-HA
     47    6      34      36      28  # NA-CW-CW
     48    7      44      36      28  # NA-CW-HA
     49    9      28      38      45  # NA-CT-HC
     50    9      28      38      46  # NA-CT-HC
     51    9      28      38      47  # NA-CT-HC
     52   10      45      38      46  # HC-CT-HC
     53   10      45      38      47  # HC-CT-HC
     54   10      46      38      47  # HC-CT-HC
     55   11      32      41      48  # NA-CT-CT
     56    9      32      41      50  # NA-CT-HC
     57    9      32      41      51  # NA-CT-HC
     58   12      48      41      50  # CT-CT-HC
     59   12      48      41      51  # CT-CT-HC
     60   10      50      41      51  # HC-CT-HC
     61   12      41      48      52  # CT-CT-HC
     62   12      41      48      53  # CT-CT-HC
     63   12      41      48      54  # CT-CT-HC
     64   10      52      48      53  # HC-CT-HC
     65   10      52      48      54  # HC-CT-HC
     66   10      53      48      54  # HC-CT-HC
     67    1      57      55      65  # CR-NA-CT
     68    2      57      55      63  # CW-NA-CR
     69    3      65      55      63  # CW-NA-CT
     70    4      55      57      59  # NA-CR-NA
     71    5      55      57      67  # NA-CR-HA
     72    5      59      57      67  # NA-CR-HA
     73    2      57      59      61  # CW-NA-CR
     74    1      57      59      68  # CR-NA-CT
     75    3      61      59      68  # CW-NA-CT
     76    6      59      61      63  # NA-CW-CW
     77    7      59      61      70  # NA-CW-HA
     78    8      63      61      70  # CW-CW-HA
     79    8      61      63      71  # CW-CW-HA
     80    6      61      63      55  # NA-CW-CW
     81    7      71      63      55  # NA-CW-HA
     82    9      55      65      72  # NA-CT-HC
     83    9      55      65      73  # NA-CT-HC
     84    9      55      65      74  # NA-CT-HC
     85   10      72      65      73  # HC-CT-HC
     86   10      72      65      74  # HC-CT-HC
     87   10      73      65      74  # HC-CT-HC
     88   11      59      68      75  # NA-CT-CT
     89    9      59      68      77  # NA-CT-HC
     90    9      59      68      78  # NA-CT-HC
     91   12      75      68      77  # CT-CT-HC
     92   12      75      68      78  # CT-CT-HC
     93   10      77      68      78  # HC-CT-HC
     94   12      68      75      79  # CT-CT-HC
     95   12      68      75      80  # CT-CT-HC
     96   12      68      75      81  # CT-CT-HC
     97   10      79      75      80  # HC-CT-HC
     98   10      79      75      81  # HC-CT-HC
     99   10      80      75      81  # HC-CT-HC
    100    1      84      82      92  # CR-NA-CT
    101    2      84      82      90  # CW-NA-CR
    102    3      92      82      90  # CW-NA-CT
    103    4      82      84      86  # NA-CR-NA
    104    5      82      84      94  # NA-CR-HA
    105    5      86      84      94  # NA-CR-HA
    106    2      84      86      88  # CW-NA-CR
    107    1      84      86      95  # CR-NA-CT
    108    3      88      86      95  # CW-NA-CT
    109    6      86      88      90  # NA-CW-CW
    110    7      86      88      97  # NA-CW-HA
    111    8      90      88      97  # CW-CW-HA
    112    8      88      90      98  # CW-CW-HA
    113    6      88      90      82  # NA-CW-CW
    114    7      98      90      82  # NA-CW-HA
    115    9      82      92      99  # NA-CT-HC
    116    9      82      92     100  # NA-CT-HC
    117    9      82      92     101  # NA-CT-HC
    118   10      99      92     100  # HC-CT-HC
    119   10      99      92     101  # HC-CT-HC
    120   10     100      92     101  # HC-CT-HC