Created by mstools

185 atoms
180 bonds
195 angles
180 dihedrals
25 impropers

18 atom types
16 bond types
13 angle types
16 dihedral types
3 improper types

0    30.0000  xlo xhi
0    30.0000  ylo yhi
0    30.0000  zlo zhi

Masses

   1   13.607  #       NA
   2   11.611  #       CR
   3   11.611  #       CW
   4   11.611  #       C1
   5    1.008  #      HCR
   6    1.008  #      HCW
   7    1.008  #       H1
   8   11.611  #       CE
   9    1.008  #       HC
  10   10.411  #        B
  11   18.598  #       FB
  12    0.400  #    DP_NA
  13    0.400  #    DP_CR
  14    0.400  #    DP_CW
  15    0.400  #    DP_C1
  16    0.400  #    DP_CE
  17    0.400  #     DP_B
  18    0.400  #    DP_FB

Bond Coeffs  # harmonic

   1   477.055449     1.3150  # CR-NA
   2   427.103250     1.3780  # CW-NA
   3   520.076482     1.3410  # CW-CW
   4   336.998088     1.4660  # CT-NA
   5   339.985660     1.0800  # CR-HA
   6   339.985660     1.0800  # CW-HA
   7   339.985660     1.0900  # CT-HC
   8   267.925430     1.5290  # CT-CT
   9   386.591778     1.3940  # B-F
  10   500.000000     0.0000  # NA-DP
  11   500.000000     0.0000  # CR-DP
  12   500.000000     0.0000  # CW-DP
  13   500.000000     0.0000  # C1-DP
  14   500.000000     0.0000  # CE-DP
  15   500.000000     0.0000  # B-DP
  16   500.000000     0.0000  # FB-DP

Angle Coeffs  # harmonic

   1    70.004780   126.4000  # CR-NA-CT
   2    70.004780   108.0000  # CR-NA-CW
   3    70.004780   125.6000  # CT-NA-CW
   4    70.004780   109.8000  # NA-CR-NA
   5    35.002390   125.1000  # HA-CR-NA
   6    70.004780   107.1000  # CW-CW-NA
   7    35.002390   122.0000  # HA-CW-NA
   8    35.002390   130.9000  # CW-CW-HA
   9    37.500000   110.7000  # HC-CT-NA
  10    32.994742   107.8000  # HC-CT-HC
  11    58.353250   112.7000  # CT-CT-NA
  12    37.500000   110.7000  # CT-CT-HC
  13    80.007170   109.5000  # F-B-F

Dihedral Coeffs  # opls

   1     0.000000     4.651052     0.000000     0.000000  # CT-NA-CR-NA
   2     0.000000     4.651052     0.000000     0.000000  # CW-NA-CR-NA
   3     0.000000     4.651052     0.000000     0.000000  # CT-NA-CR-HA
   4     0.000000     4.651052     0.000000     0.000000  # CW-NA-CR-HA
   5     0.000000     3.000000     0.000000     0.000000  # CR-NA-CW-CW
   6     0.000000     3.000000     0.000000     0.000000  # CT-NA-CW-CW
   7     0.000000     3.000000     0.000000     0.000000  # CR-NA-CW-HA
   8     0.000000     3.000000     0.000000     0.000000  # CT-NA-CW-HA
   9     0.000000    10.750478     0.000000     0.000000  # HA-CW-CW-NA
  10     0.000000    10.750478     0.000000     0.000000  # HA-CW-CW-HA
  11     0.000000    10.750478     0.000000     0.000000  # NA-CW-CW-NA
  12     0.000000     0.000000     0.124044     0.000000  # CW-NA-CT-HC
  13    -1.259345     0.000000     0.000000     0.000000  # CR-NA-CT-CT
  14    -1.709728     1.459465     0.189747     0.000000  # CT-CT-NA-CW
  15     0.000000     0.000000     0.087715     0.000000  # HC-CT-CT-NA
  16     0.000000     0.000000     0.300000     0.000000  # HC-CT-CT-HC

Improper Coeffs  # cvff

   1     1.000000   -1    2  # CR-CT-NA-CW
   2     1.100000   -1    2  # HA-NA-CR-NA
   3     1.100000   -1    2  # CW-HA-CW-NA

Atoms

       1      1      1     2.057316    12.3910     9.1570    12.2810  #       N1  c2c1im+
       2      1     12    -1.907316    12.3827     9.1790    12.2310  #      DP1  c2c1im+
       3      1      2     1.976043    13.4290     9.9210    12.0170  #       C3  c2c1im+
       4      1     13    -2.086043    13.4092     9.8857    11.9762  #      DP2  c2c1im+
       5      1      1     2.057316    14.1330    10.1090    13.1110  #       N5  c2c1im+
       6      1     12    -1.907316    14.1016    10.0936    13.1007  #      DP3  c2c1im+
       7      1      3     1.956043    13.5150     9.4290    14.1380  #       C7  c2c1im+
       8      1     14    -2.086043    13.5189     9.4209    14.1565  #      DP4  c2c1im+
       9      1      3     1.956043    12.4290     8.8360    13.6200  #       C9  c2c1im+
      10      1     14    -2.086043    12.3994     8.8738    13.5727  #      DP5  c2c1im+
      11      1      4     2.274948    11.4960     8.5610    11.2850  #      C11  c2c1im+
      12      1     15    -2.444948    11.5130     8.5527    11.2909  #      DP6  c2c1im+
      13      1      5     0.210000    13.7540    10.2070    11.0280  #      H13  c2c1im+
      14      1      4     2.067200    15.4610    10.7250    13.1940  #      C14  c2c1im+
      15      1     15    -2.237200    15.4250    10.6948    13.2241  #      DP8  c2c1im+
      16      1      6     0.210000    13.9160     9.2560    15.1260  #      H16  c2c1im+
      17      1      6     0.210000    11.8040     8.1040    14.1090  #      H17  c2c1im+
      18      1      7     0.130000    10.4600     8.7440    11.5710  #      H18  c2c1im+
      19      1      7     0.130000    11.5600     9.1240    10.3540  #      H19  c2c1im+
      20      1      7     0.130000    11.6730     7.4870    11.2340  #      H20  c2c1im+
      21      1      8     2.394948    15.9040    11.1620    11.8070  #      C21  c2c1im+
      22      1     16    -2.444948    15.9508    11.1433    11.8262  #     DP14  c2c1im+
      23      1      7     0.130000    15.4190    11.5930    13.8520  #      H23  c2c1im+
      24      1      7     0.130000    16.1730    10.0020    13.5910  #      H24  c2c1im+
      25      1      9     0.060000    16.8020    11.7740    11.8880  #      H25  c2c1im+
      26      1      9     0.060000    16.1180    10.2830    11.1990  #      H26  c2c1im+
      27      1      9     0.060000    15.1100    11.7430    11.3380  #      H27  c2c1im+
      28      2      1     2.057316    24.1860     8.4530    19.3510  #       N1  c2c1im+
      29      2     12    -1.907316    24.1777     8.4750    19.3010  #      DP1  c2c1im+
      30      2      2     1.976043    23.5530     7.4500    19.9180  #       C3  c2c1im+
      31      2     13    -2.086043    23.5332     7.4147    19.8772  #      DP2  c2c1im+
      32      2      1     2.057316    22.3860     7.8560    20.3670  #       N5  c2c1im+
      33      2     12    -1.907316    22.3546     7.8406    20.3567  #      DP3  c2c1im+
      34      2      3     1.956043    22.2600     9.1970    20.0730  #       C7  c2c1im+
      35      2     14    -2.086043    22.2639     9.1889    20.0915  #      DP4  c2c1im+
      36      2      3     1.956043    23.3820     9.5680    19.4390  #       C9  c2c1im+
      37      2     14    -2.086043    23.3524     9.6058    19.3917  #      DP5  c2c1im+
      38      2      4     2.274948    25.4140     8.3470    18.5570  #      C11  c2c1im+
      39      2     15    -2.444948    25.4310     8.3387    18.5629  #      DP6  c2c1im+
      40      2      5     0.210000    23.8590     6.4150    19.8700  #      H13  c2c1im+
      41      2      4     2.067200    21.3060     7.0040    20.8740  #      C14  c2c1im+
      42      2     15    -2.237200    21.2700     6.9738    20.9041  #      DP8  c2c1im+
      43      2      6     0.210000    21.3650     9.7940    20.1700  #      H16  c2c1im+
      44      2      6     0.210000    23.5530    10.5090    18.9370  #      H17  c2c1im+
      45      2      7     0.130000    26.1320     9.0920    18.8970  #      H18  c2c1im+
      46      2      7     0.130000    25.9330     7.4230    18.8110  #      H19  c2c1im+
      47      2      7     0.130000    25.1830     8.5190    17.5050  #      H20  c2c1im+
      48      2      8     2.394948    21.7490     5.5510    20.8440  #      C21  c2c1im+
      49      2     16    -2.444948    21.7958     5.5323    20.8632  #     DP14  c2c1im+
      50      2      7     0.130000    21.0680     7.2900    21.8990  #      H23  c2c1im+
      51      2      7     0.130000    20.4210     7.1270    20.2490  #      H24  c2c1im+
      52      2      9     0.060000    21.0250     4.9380    21.3800  #      H25  c2c1im+
      53      2      9     0.060000    21.8160     5.2120    19.8100  #      H26  c2c1im+
      54      2      9     0.060000    22.7260     5.4580    21.3190  #      H27  c2c1im+
      55      3      1     2.057316     5.0490    14.7050    25.6260  #       N1  c2c1im+
      56      3     12    -1.907316     5.0407    14.7270    25.5760  #      DP1  c2c1im+
      57      3      2     1.976043     4.6480    13.5010    25.2800  #       C3  c2c1im+
      58      3     13    -2.086043     4.6282    13.4657    25.2392  #      DP2  c2c1im+
      59      3      1     2.057316     5.6550    12.6590    25.3480  #       N5  c2c1im+
      60      3     12    -1.907316     5.6236    12.6436    25.3377  #      DP3  c2c1im+
      61      3      3     1.956043     6.7680    13.3590    25.7610  #       C7  c2c1im+
      62      3     14    -2.086043     6.7719    13.3509    25.7795  #      DP4  c2c1im+
      63      3      3     1.956043     6.3900    14.6340    25.9340  #       C9  c2c1im+
      64      3     14    -2.086043     6.3604    14.6718    25.8867  #      DP5  c2c1im+
      65      3      4     2.274948     4.1770    15.8570    25.8710  #      C11  c2c1im+
      66      3     15    -2.444948     4.1940    15.8487    25.8769  #      DP6  c2c1im+
      67      3      5     0.210000     3.6190    13.2080    25.1330  #      H13  c2c1im+
      68      3      4     2.067200     5.5750    11.1990    25.2420  #      C14  c2c1im+
      69      3     15    -2.237200     5.5390    11.1688    25.2721  #      DP8  c2c1im+
      70      3      6     0.210000     7.7160    12.9370    26.0600  #      H16  c2c1im+
      71      3      6     0.210000     6.9720    15.4180    26.3940  #      H17  c2c1im+
      72      3      7     0.130000     4.5580    16.7240    25.3320  #      H18  c2c1im+
      73      3      7     0.130000     3.2210    15.7030    25.3720  #      H19  c2c1im+
      74      3      7     0.130000     4.1550    16.0750    26.9390  #      H20  c2c1im+
      75      3      8     2.394948     4.1320    10.7870    24.9970  #      C21  c2c1im+
      76      3     16    -2.444948     4.1788    10.7683    25.0162  #     DP14  c2c1im+
      77      3      7     0.130000     6.1950    10.8600    24.4120  #      H23  c2c1im+
      78      3      7     0.130000     5.9290    10.7460    26.1680  #      H24  c2c1im+
      79      3      9     0.060000     4.0940     9.7280    24.7420  #      H25  c2c1im+
      80      3      9     0.060000     3.5450    10.9640    25.8980  #      H26  c2c1im+
      81      3      9     0.060000     3.7210    11.3730    24.1740  #      H27  c2c1im+
      82      4      1     2.057316     7.2570    19.3890    26.1620  #       N1  c2c1im+
      83      4     12    -1.907316     7.2487    19.4110    26.1120  #      DP1  c2c1im+
      84      4      2     1.976043     7.3580    20.5660    25.5830  #       C3  c2c1im+
      85      4     13    -2.086043     7.3382    20.5307    25.5422  #      DP2  c2c1im+
      86      4      1     2.057316     6.1580    21.0540    25.3550  #       N5  c2c1im+
      87      4     12    -1.907316     6.1266    21.0386    25.3447  #      DP3  c2c1im+
      88      4      3     1.956043     5.2330    20.1410    25.8120  #       C7  c2c1im+
      89      4     14    -2.086043     5.2369    20.1329    25.8305  #      DP4  c2c1im+
      90      4      3     1.956043     5.9170    19.1040    26.3150  #       C9  c2c1im+
      91      4     14    -2.086043     5.8874    19.1418    26.2677  #      DP5  c2c1im+
      92      4      4     2.274948     8.3640    18.6320    26.7540  #      C11  c2c1im+
      93      4     15    -2.444948     8.3810    18.6237    26.7599  #      DP6  c2c1im+
      94      4      5     0.210000     8.2740    21.1260    25.4700  #      H13  c2c1im+
      95      4      4     2.067200     5.8450    22.4170    24.9160  #      C14  c2c1im+
      96      4     15    -2.237200     5.8090    22.3868    24.9461  #      DP8  c2c1im+
      97      4      6     0.210000     4.1690    20.3010    25.9110  #      H16  c2c1im+
      98      4      6     0.210000     5.5110    18.2840    26.8890  #      H17  c2c1im+
      99      4      7     0.130000     8.3310    17.6020    26.3990  #      H18  c2c1im+
     100      4      7     0.130000     9.3070    18.9720    26.3260  #      H19  c2c1im+
     101      4      7     0.130000     8.2730    18.6450    27.8410  #      H20  c2c1im+
     102      4      8     2.394948     7.1360    23.1960    24.7200  #      C21  c2c1im+
     103      4     16    -2.444948     7.1828    23.1773    24.7392  #     DP14  c2c1im+
     104      4      7     0.130000     5.2970    22.3800    23.9750  #      H23  c2c1im+
     105      4      7     0.130000     5.2340    22.9110    25.6720  #      H24  c2c1im+
     106      4      9     0.060000     6.9170    24.1440    24.2290  #      H25  c2c1im+
     107      4      9     0.060000     7.5950    23.3880    25.6900  #      H26  c2c1im+
     108      4      9     0.060000     7.8210    22.6160    24.1020  #      H27  c2c1im+
     109      5      1     2.057316    22.9120    10.8230    26.5350  #       N1  c2c1im+
     110      5     12    -1.907316    22.9037    10.8450    26.4850  #      DP1  c2c1im+
     111      5      2     1.976043    22.8440     9.5490    26.2200  #       C3  c2c1im+
     112      5     13    -2.086043    22.8242     9.5137    26.1792  #      DP2  c2c1im+
     113      5      1     2.057316    21.5860     9.1850    26.1010  #       N5  c2c1im+
     114      5     12    -1.907316    21.5546     9.1696    26.0907  #      DP3  c2c1im+
     115      5      3     1.956043    20.7990    10.2870    26.3540  #       C7  c2c1im+
     116      5     14    -2.086043    20.8029    10.2789    26.3725  #      DP4  c2c1im+
     117      5      3     1.956043    21.6250    11.3080    26.6240  #       C9  c2c1im+
     118      5     14    -2.086043    21.5954    11.3458    26.5767  #      DP5  c2c1im+
     119      5      4     2.274948    24.1330    11.6350    26.5500  #      C11  c2c1im+
     120      5     15    -2.444948    24.1500    11.6267    26.5559  #      DP6  c2c1im+
     121      5      5     0.210000    23.6850     8.9350    25.9300  #      H13  c2c1im+
     122      5      4     2.067200    21.0980     7.9110    25.5640  #      C14  c2c1im+
     123      5     15    -2.237200    21.0620     7.8808    25.5941  #      DP8  c2c1im+
     124      5      6     0.210000    19.7340    10.3660    26.1930  #      H16  c2c1im+
     125      5      6     0.210000    21.3500    12.3490    26.7190  #      H17  c2c1im+
     126      5      7     0.130000    24.1870    12.1930    27.4850  #      H18  c2c1im+
     127      5      7     0.130000    25.0010    10.9840    26.6440  #      H19  c2c1im+
     128      5      7     0.130000    24.1170    12.3320    25.7130  #      H20  c2c1im+
     129      5      8     2.394948    22.2800     7.0310    25.1920  #      C21  c2c1im+
     130      5     16    -2.444948    22.3268     7.0123    25.2112  #     DP14  c2c1im+
     131      5      7     0.130000    20.4930     7.4070    26.3180  #      H23  c2c1im+
     132      5      7     0.130000    20.4910     8.0980    24.6780  #      H24  c2c1im+
     133      5      9     0.060000    21.9270     6.0260    24.9620  #      H25  c2c1im+
     134      5      9     0.060000    22.7820     7.4480    24.3190  #      H26  c2c1im+
     135      5      9     0.060000    22.9790     6.9880    26.0270  #      H27  c2c1im+
     136      6     10     2.279329    13.8580     2.7880    25.9070  #       B1     BF4-
     137      6     17    -1.319329    13.8497     2.8100    25.8570  #      DP1     BF4-
     138      6     11     0.881922    13.7670     4.1590    25.6750  #       F3     BF4-
     139      6     18    -1.371922    13.7472     4.1237    25.6342  #      DP2     BF4-
     140      6     11     0.881922    13.1420     2.4610    27.0570  #       F5     BF4-
     141      6     18    -1.371922    13.1106     2.4456    27.0467  #      DP3     BF4-
     142      6     11     0.881922    13.3290     2.0950    24.8190  #       F7     BF4-
     143      6     18    -1.371922    13.3329     2.0869    24.8375  #      DP4     BF4-
     144      6     11     0.881922    15.1960     2.4330    26.0760  #       F9     BF4-
     145      6     18    -1.371922    15.1664     2.4708    26.0287  #      DP5     BF4-
     146      7     10     2.279329    11.8880    13.2670    26.0780  #       B1     BF4-
     147      7     17    -1.319329    11.8797    13.2890    26.0280  #      DP1     BF4-
     148      7     11     0.881922    10.9770    12.6430    25.2270  #       F3     BF4-
     149      7     18    -1.371922    10.9572    12.6077    25.1862  #      DP2     BF4-
     150      7     11     0.881922    13.1710    13.1680    25.5400  #       F5     BF4-
     151      7     18    -1.371922    13.1396    13.1526    25.5297  #      DP3     BF4-
     152      7     11     0.881922    11.5470    14.6110    26.2190  #       F7     BF4-
     153      7     18    -1.371922    11.5509    14.6029    26.2375  #      DP4     BF4-
     154      7     11     0.881922    11.8600    12.6470    27.3260  #       F9     BF4-
     155      7     18    -1.371922    11.8304    12.6848    27.2787  #      DP5     BF4-
     156      8     10     2.279329    18.5010     9.2150    15.7370  #       B1     BF4-
     157      8     17    -1.319329    18.4927     9.2370    15.6870  #      DP1     BF4-
     158      8     11     0.881922    19.8080     8.7950    15.4950  #       F3     BF4-
     159      8     18    -1.371922    19.7882     8.7597    15.4542  #      DP2     BF4-
     160      8     11     0.881922    18.2800    10.4370    15.1050  #       F5     BF4-
     161      8     18    -1.371922    18.2486    10.4216    15.0947  #      DP3     BF4-
     162      8     11     0.881922    17.6080     8.2670    15.2400  #       F7     BF4-
     163      8     18    -1.371922    17.6119     8.2589    15.2585  #      DP4     BF4-
     164      8     11     0.881922    18.3060     9.3610    17.1100  #       F9     BF4-
     165      8     18    -1.371922    18.2764     9.3988    17.0627  #      DP5     BF4-
     166      9     10     2.279329    19.7510    13.3200    14.8510  #       B1     BF4-
     167      9     17    -1.319329    19.7427    13.3420    14.8010  #      DP1     BF4-
     168      9     11     0.881922    19.2720    14.4120    15.5720  #       F3     BF4-
     169      9     18    -1.371922    19.2522    14.3767    15.5312  #      DP2     BF4-
     170      9     11     0.881922    20.2990    12.3860    15.7290  #       F5     BF4-
     171      9     18    -1.371922    20.2676    12.3706    15.7187  #      DP3     BF4-
     172      9     11     0.881922    18.7030    12.7330    14.1440  #       F7     BF4-
     173      9     18    -1.371922    18.7069    12.7249    14.1625  #      DP4     BF4-
     174      9     11     0.881922    20.7310    13.7470    13.9570  #       F9     BF4-
     175      9     18    -1.371922    20.7014    13.7848    13.9097  #      DP5     BF4-
     176     10     10     2.279329    21.2750    24.8490    15.4990  #       B1     BF4-
     177     10     17    -1.319329    21.2667    24.8710    15.4490  #      DP1     BF4-
     178     10     11     0.881922    20.9650    25.8500    14.5790  #       F3     BF4-
     179     10     18    -1.371922    20.9452    25.8147    14.5382  #      DP2     BF4-
     180     10     11     0.881922    20.2870    24.7970    16.4810  #       F5     BF4-
     181     10     18    -1.371922    20.2556    24.7816    16.4707  #      DP3     BF4-
     182     10     11     0.881922    21.3440    23.6210    14.8440  #       F7     BF4-
     183     10     18    -1.371922    21.3479    23.6129    14.8625  #      DP4     BF4-
     184     10     11     0.881922    22.5050    25.1280    16.0930  #       F9     BF4-
     185     10     18    -1.371922    22.4754    25.1658    16.0457  #      DP5     BF4-

Bonds

     1      1      3      1  # C3-N1
     2      1      5      3  # N5-C3
     3      2      7      5  # C7-N5
     4      3      9      7  # C9-C7
     5      4     11      1  # C11-N1
     6      5     13      3  # H13-C3
     7      4     14      5  # C14-N5
     8      6     16      7  # H16-C7
     9      6     17      9  # H17-C9
    10      7     18     11  # H18-C11
    11      7     19     11  # H19-C11
    12      7     20     11  # H20-C11
    13      8     21     14  # C21-C14
    14      7     23     14  # H23-C14
    15      7     24     14  # H24-C14
    16      7     25     21  # H25-C21
    17      7     26     21  # H26-C21
    18      7     27     21  # H27-C21
    19      2      9      1  # C9-N1
    20     10      1      2  # N1-DP1
    21     11      3      4  # C3-DP2
    22     10      5      6  # N5-DP3
    23     12      7      8  # C7-DP4
    24     12      9     10  # C9-DP5
    25     13     11     12  # C11-DP6
    26     13     14     15  # C14-DP8
    27     14     21     22  # C21-DP14
    28      1     30     28  # C3-N1
    29      1     32     30  # N5-C3
    30      2     34     32  # C7-N5
    31      3     36     34  # C9-C7
    32      4     38     28  # C11-N1
    33      5     40     30  # H13-C3
    34      4     41     32  # C14-N5
    35      6     43     34  # H16-C7
    36      6     44     36  # H17-C9
    37      7     45     38  # H18-C11
    38      7     46     38  # H19-C11
    39      7     47     38  # H20-C11
    40      8     48     41  # C21-C14
    41      7     50     41  # H23-C14
    42      7     51     41  # H24-C14
    43      7     52     48  # H25-C21
    44      7     53     48  # H26-C21
    45      7     54     48  # H27-C21
    46      2     36     28  # C9-N1
    47     10     28     29  # N1-DP1
    48     11     30     31  # C3-DP2
    49     10     32     33  # N5-DP3
    50     12     34     35  # C7-DP4
    51     12     36     37  # C9-DP5
    52     13     38     39  # C11-DP6
    53     13     41     42  # C14-DP8
    54     14     48     49  # C21-DP14
    55      1     57     55  # C3-N1
    56      1     59     57  # N5-C3
    57      2     61     59  # C7-N5
    58      3     63     61  # C9-C7
    59      4     65     55  # C11-N1
    60      5     67     57  # H13-C3
    61      4     68     59  # C14-N5
    62      6     70     61  # H16-C7
    63      6     71     63  # H17-C9
    64      7     72     65  # H18-C11
    65      7     73     65  # H19-C11
    66      7     74     65  # H20-C11
    67      8     75     68  # C21-C14
    68      7     77     68  # H23-C14
    69      7     78     68  # H24-C14
    70      7     79     75  # H25-C21
    71      7     80     75  # H26-C21
    72      7     81     75  # H27-C21
    73      2     63     55  # C9-N1
    74     10     55     56  # N1-DP1
    75     11     57     58  # C3-DP2
    76     10     59     60  # N5-DP3
    77     12     61     62  # C7-DP4
    78     12     63     64  # C9-DP5
    79     13     65     66  # C11-DP6
    80     13     68     69  # C14-DP8
    81     14     75     76  # C21-DP14
    82      1     84     82  # C3-N1
    83      1     86     84  # N5-C3
    84      2     88     86  # C7-N5
    85      3     90     88  # C9-C7
    86      4     92     82  # C11-N1
    87      5     94     84  # H13-C3
    88      4     95     86  # C14-N5
    89      6     97     88  # H16-C7
    90      6     98     90  # H17-C9
    91      7     99     92  # H18-C11
    92      7    100     92  # H19-C11
    93      7    101     92  # H20-C11
    94      8    102     95  # C21-C14
    95      7    104     95  # H23-C14
    96      7    105     95  # H24-C14
    97      7    106    102  # H25-C21
    98      7    107    102  # H26-C21
    99      7    108    102  # H27-C21
   100      2     90     82  # C9-N1
   101     10     82     83  # N1-DP1
   102     11     84     85  # C3-DP2
   103     10     86     87  # N5-DP3
   104     12     88     89  # C7-DP4
   105     12     90     91  # C9-DP5
   106     13     92     93  # C11-DP6
   107     13     95     96  # C14-DP8
   108     14    102    103  # C21-DP14
   109      1    111    109  # C3-N1
   110      1    113    111  # N5-C3
   111      2    115    113  # C7-N5
   112      3    117    115  # C9-C7
   113      4    119    109  # C11-N1
   114      5    121    111  # H13-C3
   115      4    122    113  # C14-N5
   116      6    124    115  # H16-C7
   117      6    125    117  # H17-C9
   118      7    126    119  # H18-C11
   119      7    127    119  # H19-C11
   120      7    128    119  # H20-C11
   121      8    129    122  # C21-C14
   122      7    131    122  # H23-C14
   123      7    132    122  # H24-C14
   124      7    133    129  # H25-C21
   125      7    134    129  # H26-C21
   126      7    135    129  # H27-C21
   127      2    117    109  # C9-N1
   128     10    109    110  # N1-DP1
   129     11    111    112  # C3-DP2
   130     10    113    114  # N5-DP3
   131     12    115    116  # C7-DP4
   132     12    117    118  # C9-DP5
   133     13    119    120  # C11-DP6
   134     13    122    123  # C14-DP8
   135     14    129    130  # C21-DP14
   136      9    138    136  # F3-B1
   137      9    140    136  # F5-B1
   138      9    142    136  # F7-B1
   139      9    144    136  # F9-B1
   140     15    136    137  # B1-DP1
   141     16    138    139  # F3-DP2
   142     16    140    141  # F5-DP3
   143     16    142    143  # F7-DP4
   144     16    144    145  # F9-DP5
   145      9    148    146  # F3-B1
   146      9    150    146  # F5-B1
   147      9    152    146  # F7-B1
   148      9    154    146  # F9-B1
   149     15    146    147  # B1-DP1
   150     16    148    149  # F3-DP2
   151     16    150    151  # F5-DP3
   152     16    152    153  # F7-DP4
   153     16    154    155  # F9-DP5
   154      9    158    156  # F3-B1
   155      9    160    156  # F5-B1
   156      9    162    156  # F7-B1
   157      9    164    156  # F9-B1
   158     15    156    157  # B1-DP1
   159     16    158    159  # F3-DP2
   160     16    160    161  # F5-DP3
   161     16    162    163  # F7-DP4
   162     16    164    165  # F9-DP5
   163      9    168    166  # F3-B1
   164      9    170    166  # F5-B1
   165      9    172    166  # F7-B1
   166      9    174    166  # F9-B1
   167     15    166    167  # B1-DP1
   168     16    168    169  # F3-DP2
   169     16    170    171  # F5-DP3
   170     16    172    173  # F7-DP4
   171     16    174    175  # F9-DP5
   172      9    178    176  # F3-B1
   173      9    180    176  # F5-B1
   174      9    182    176  # F7-B1
   175      9    184    176  # F9-B1
   176     15    176    177  # B1-DP1
   177     16    178    179  # F3-DP2
   178     16    180    181  # F5-DP3
   179     16    182    183  # F7-DP4
   180     16    184    185  # F9-DP5

Angles

     1      1      3      1     11  # C3-N1-C11
     2      2      3      1      9  # C3-N1-C9
     3      3     11      1      9  # C11-N1-C9
     4      4      1      3      5  # N1-C3-N5
     5      5      1      3     13  # N1-C3-H13
     6      5      5      3     13  # N5-C3-H13
     7      2      3      5      7  # C3-N5-C7
     8      1      3      5     14  # C3-N5-C14
     9      3      7      5     14  # C7-N5-C14
    10      6      5      7      9  # N5-C7-C9
    11      7      5      7     16  # N5-C7-H16
    12      8      9      7     16  # C9-C7-H16
    13      8      7      9     17  # C7-C9-H17
    14      6      7      9      1  # C7-C9-N1
    15      7     17      9      1  # H17-C9-N1
    16      9      1     11     18  # N1-C11-H18
    17      9      1     11     19  # N1-C11-H19
    18      9      1     11     20  # N1-C11-H20
    19     10     18     11     19  # H18-C11-H19
    20     10     18     11     20  # H18-C11-H20
    21     10     19     11     20  # H19-C11-H20
    22     11      5     14     21  # N5-C14-C21
    23      9      5     14     23  # N5-C14-H23
    24      9      5     14     24  # N5-C14-H24
    25     12     21     14     23  # C21-C14-H23
    26     12     21     14     24  # C21-C14-H24
    27     10     23     14     24  # H23-C14-H24
    28     12     14     21     25  # C14-C21-H25
    29     12     14     21     26  # C14-C21-H26
    30     12     14     21     27  # C14-C21-H27
    31     10     25     21     26  # H25-C21-H26
    32     10     25     21     27  # H25-C21-H27
    33     10     26     21     27  # H26-C21-H27
    34      1     30     28     38  # C3-N1-C11
    35      2     30     28     36  # C3-N1-C9
    36      3     38     28     36  # C11-N1-C9
    37      4     28     30     32  # N1-C3-N5
    38      5     28     30     40  # N1-C3-H13
    39      5     32     30     40  # N5-C3-H13
    40      2     30     32     34  # C3-N5-C7
    41      1     30     32     41  # C3-N5-C14
    42      3     34     32     41  # C7-N5-C14
    43      6     32     34     36  # N5-C7-C9
    44      7     32     34     43  # N5-C7-H16
    45      8     36     34     43  # C9-C7-H16
    46      8     34     36     44  # C7-C9-H17
    47      6     34     36     28  # C7-C9-N1
    48      7     44     36     28  # H17-C9-N1
    49      9     28     38     45  # N1-C11-H18
    50      9     28     38     46  # N1-C11-H19
    51      9     28     38     47  # N1-C11-H20
    52     10     45     38     46  # H18-C11-H19
    53     10     45     38     47  # H18-C11-H20
    54     10     46     38     47  # H19-C11-H20
    55     11     32     41     48  # N5-C14-C21
    56      9     32     41     50  # N5-C14-H23
    57      9     32     41     51  # N5-C14-H24
    58     12     48     41     50  # C21-C14-H23
    59     12     48     41     51  # C21-C14-H24
    60     10     50     41     51  # H23-C14-H24
    61     12     41     48     52  # C14-C21-H25
    62     12     41     48     53  # C14-C21-H26
    63     12     41     48     54  # C14-C21-H27
    64     10     52     48     53  # H25-C21-H26
    65     10     52     48     54  # H25-C21-H27
    66     10     53     48     54  # H26-C21-H27