# DFF generated LAMMPS data file

75 atoms
60 bonds
70 angles
50 dihedrals
10 impropers

6  atom types
6  bond types
8  angle types
4  dihedral types
2  improper types

      0.0000     31.8888   xlo xhi
      0.0000     31.8888   ylo yhi
      0.0000     31.8888   zlo zhi

Masses

           1     15.9994   #   o_2w
           2      1.0079   #   h_1o
           3      1.0079   #   h_1
           4     12.0110   #   c_4h3
           5     12.0110   #   c_3h2
           6     12.0110   #   c_3h

Atoms

           1           1           1    -0.84760    24.25700     3.59400     3.21800	      #      O1  WAT
           2           1           2     0.42380    24.35200     4.36100     3.85300	      #      H2  WAT
           3           1           2     0.42380    23.86200     2.80600     3.69100	      #      H3  WAT
           4           2           1    -0.84760     9.10200    11.19400    20.27900	      #      O4  WAT
           5           2           2     0.42380     8.45100    11.86500    19.92400	      #      H5  WAT
           6           2           2     0.42380     9.89300    11.13100    19.67000	      #      H6  WAT
           7           3           1    -0.84760    26.06400     5.31000    28.42100	      #      O7  WAT
           8           3           2     0.42380    26.18200     5.65800    27.49100	      #      H8  WAT
           9           3           2     0.42380    25.17700     4.85600    28.50600	      #      H9  WAT
          10           4           1    -0.84760     9.12600    16.37400    25.42900	      #     O10  WAT
          11           4           2     0.42380     9.12300    16.72000    24.49000	      #     H11  WAT
          12           4           2     0.42380     9.66300    15.53200    25.48000	      #     H12  WAT
          13           5           1    -0.84760    19.38600    22.40000    18.52800	      #     O13  WAT
          14           5           2     0.42380    18.88200    21.56000    18.32600	      #     H14  WAT
          15           5           2     0.42380    19.50200    22.93700    17.69200	      #     H15  WAT
          16           6           1    -0.84760    14.06200     8.24100     4.16800	      #     O16  WAT
          17           6           2     0.42380    15.03800     8.02400     4.19200	      #     H17  WAT
          18           6           2     0.42380    13.64300     7.84000     3.35300	      #     H18  WAT
          19           7           1    -0.84760    27.79700     7.63700    13.38200	      #     O19  WAT
          20           7           2     0.42380    27.34000     8.30800    13.96600	      #     H20  WAT
          21           7           2     0.42380    27.30400     7.54500    12.51700	      #     H21  WAT
          22           8           1    -0.84760     9.79700     4.90400    18.01800	      #     O22  WAT
          23           8           2     0.42380     9.22900     4.48200    18.72500	      #     H23  WAT
          24           8           2     0.42380    10.06600     5.82400    18.30100	      #     H24  WAT
          25           9           1    -0.84760     6.37100    10.92600     3.92500	      #     O25  WAT
          26           9           2     0.42380     6.76300    10.30900     3.24200	      #     H26  WAT
          27           9           2     0.42380     7.05800    11.59100     4.21800	      #     H27  WAT
          28          10           1    -0.84760     8.79700    27.17300    11.16200	      #     O28  WAT
          29          10           2     0.42380     9.31100    26.88700    11.97100	      #     H29  WAT
          30          10           2     0.42380     9.11400    28.07000    10.85500	      #     H30  WAT
          31          11           5    -0.32000     3.72300    21.32500    27.33100	      #     C31  C3H6
          32          11           6    -0.09730     5.21400    21.24500    27.70800	      #     C32  C3H6
          33          11           4    -0.24270     5.80500    20.69100    29.01900	      #     C33  C3H6
          34          11           3     0.16000     3.44500    21.24500    26.37300	      #     H34  C3H6
          35          11           3     0.16000     3.03300    21.45600    28.04200	      #     H35  C3H6
          36          11           3     0.16000     5.79900    21.55200    27.10300	      #     H36  C3H6
          37          11           3     0.06000     6.79400    20.69500    29.16100	      #     H37  C3H6
          38          11           3     0.06000     5.55100    21.10100    29.89400	      #     H38  C3H6
          39          11           3     0.06000     5.64500    19.73800    29.27500	      #     H39  C3H6
          40          12           5    -0.32000    26.20100    14.85500    16.77000	      #     C40  C3H6
          41          12           6    -0.09730    25.92400    15.93100    17.83700	      #     C41  C3H6
          42          12           4    -0.24270    26.34400    17.41200    17.78300	      #     C42  C3H6
          43          12           3     0.16000    25.55200    14.10600    16.63500	      #     H43  C3H6
          44          12           3     0.16000    27.03000    14.90600    16.21300	      #     H44  C3H6
          45          12           3     0.16000    25.47000    15.66900    18.56300	      #     H45  C3H6
          46          12           3     0.06000    26.11500    18.02300    18.54100	      #     H46  C3H6
          47          12           3     0.06000    27.31100    17.65500    17.71400	      #     H47  C3H6
          48          12           3     0.06000    26.01300    17.99900    17.04500	      #     H48  C3H6
          49          13           5    -0.32000     6.61600    18.69900    15.46000	      #     C49  C3H6
          50          13           6    -0.09730     6.22300    17.23300    15.72300	      #     C50  C3H6
          51          13           4    -0.24270     5.35000    16.70600    16.87800	      #     C51  C3H6
          52          13           3     0.16000     6.75900    19.01800    14.52300	      #     H52  C3H6
          53          13           3     0.16000     6.73000    19.33100    16.22600	      #     H53  C3H6
          54          13           3     0.16000     6.53100    16.62400    15.14300	      #     H54  C3H6
          55          13           3     0.06000     5.16300    15.72700    16.95500	      #     H55  C3H6
          56          13           3     0.06000     5.63100    16.85500    17.82500	      #     H56  C3H6
          57          13           3     0.06000     4.40700    17.02200    16.97600	      #     H57  C3H6
          58          14           5    -0.32000    17.86000    15.07500    11.87500	      #     C58  C3H6
          59          14           6    -0.09730    16.55800    14.48900    12.45400	      #     C59  C3H6
          60          14           4    -0.24270    16.37500    13.84300    13.84000	      #     C60  C3H6
          61          14           3     0.16000    17.82100    15.84400    11.23600	      #     H61  C3H6
          62          14           3     0.16000    18.74300    14.68600    12.13700	      #     H62  C3H6
          63          14           3     0.16000    15.83200    14.52900    11.93100	      #     H63  C3H6
          64          14           3     0.06000    15.48100    13.48800    14.11100	      #     H64  C3H6
          65          14           3     0.06000    16.91100    13.03800    14.09200	      #     H65  C3H6
          66          14           3     0.06000    16.55300    14.37600    14.66700	      #     H66  C3H6
          67          15           5    -0.32000    16.59400    23.85800     3.56000	      #     C67  C3H6
          68          15           6    -0.09730    16.16900    23.71100     5.03300	      #     C68  C3H6
          69          15           4    -0.24270    15.96300    22.39400     5.80600	      #     C69  C3H6
          70          15           3     0.16000    17.13500    24.64900     3.27200	      #     H70  C3H6
          71          15           3     0.16000    16.33100    23.16300     2.89100	      #     H71  C3H6
          72          15           3     0.16000    16.02700    24.46900     5.48800	      #     H72  C3H6
          73          15           3     0.06000    15.67700    22.41700     6.76300	      #     H73  C3H6
          74          15           3     0.06000    15.28800    21.72800     5.48900	      #     H74  C3H6
          75          15           3     0.06000    16.72500    21.75600     5.91800	      #     H75  C3H6

Bonds

           1           1           1           2
           2           1           1           3
           3           1           4           5
           4           1           4           6
           5           1           7           8
           6           1           7           9
           7           1          10          11
           8           1          10          12
           9           1          13          14
          10           1          13          15
          11           1          16          17
          12           1          16          18
          13           1          19          20
          14           1          19          21
          15           1          22          23
          16           1          22          24
          17           1          25          26
          18           1          25          27
          19           1          28          29
          20           1          28          30
          21           6          31          32
          22           5          32          33
          23           3          31          34
          24           3          31          35
          25           4          32          36
          26           2          33          37
          27           2          33          38
          28           2          33          39
          29           6          40          41
          30           5          41          42
          31           3          40          43
          32           3          40          44
          33           4          41          45
          34           2          42          46
          35           2          42          47
          36           2          42          48
          37           6          49          50
          38           5          50          51
          39           3          49          52
          40           3          49          53
          41           4          50          54
          42           2          51          55
          43           2          51          56
          44           2          51          57
          45           6          58          59
          46           5          59          60
          47           3          58          61
          48           3          58          62
          49           4          59          63
          50           2          60          64
          51           2          60          65
          52           2          60          66
          53           6          67          68
          54           5          68          69
          55           3          67          70
          56           3          67          71
          57           4          68          72
          58           2          69          73
          59           2          69          74
          60           2          69          75

Angles

           1           1           2           1           3
           2           1           5           4           6
           3           1           8           7           9
           4           1          11          10          12
           5           1          14          13          15
           6           1          17          16          18
           7           1          20          19          21
           8           1          23          22          24
           9           1          26          25          27
          10           1          29          28          30
          11           8          32          31          34
          12           8          32          31          35
          13           3          34          31          35
          14           6          31          32          33
          15           5          31          32          36
          16           4          33          32          36
          17           7          32          33          37
          18           7          32          33          38
          19           7          32          33          39
          20           2          37          33          38
          21           2          37          33          39
          22           2          38          33          39
          23           8          41          40          43
          24           8          41          40          44
          25           3          43          40          44
          26           6          40          41          42
          27           5          40          41          45
          28           4          42          41          45
          29           7          41          42          46
          30           7          41          42          47
          31           7          41          42          48
          32           2          46          42          47
          33           2          46          42          48
          34           2          47          42          48
          35           8          50          49          52
          36           8          50          49          53
          37           3          52          49          53
          38           6          49          50          51
          39           5          49          50          54
          40           4          51          50          54
          41           7          50          51          55
          42           7          50          51          56
          43           7          50          51          57
          44           2          55          51          56
          45           2          55          51          57
          46           2          56          51          57
          47           8          59          58          61
          48           8          59          58          62
          49           3          61          58          62
          50           6          58          59          60
          51           5          58          59          63
          52           4          60          59          63
          53           7          59          60          64
          54           7          59          60          65
          55           7          59          60          66
          56           2          64          60          65
          57           2          64          60          66
          58           2          65          60          66
          59           8          68          67          70
          60           8          68          67          71
          61           3          70          67          71
          62           6          67          68          69
          63           5          67          68          72
          64           4          69          68          72
          65           7          68          69          73
          66           7          68          69          74
          67           7          68          69          75
          68           2          73          69          74
          69           2          73          69          75
          70           2          74          69          75

Dihedrals

           1           3          34          31          32          33
           2           2          34          31          32          36
           3           3          35          31          32          33
           4           2          35          31          32          36
           5           4          31          32          33          37
           6           4          31          32          33          38
           7           4          31          32          33          39
           8           1          36          32          33          37
           9           1          36          32          33          38
          10           1          36          32          33          39
          11           3          43          40          41          42
          12           2          43          40          41          45
          13           3          44          40          41          42
          14           2          44          40          41          45
          15           4          40          41          42          46
          16           4          40          41          42          47
          17           4          40          41          42          48
          18           1          45          41          42          46
          19           1          45          41          42          47
          20           1          45          41          42          48
          21           3          52          49          50          51
          22           2          52          49          50          54
          23           3          53          49          50          51
          24           2          53          49          50          54
          25           4          49          50          51          55
          26           4          49          50          51          56
          27           4          49          50          51          57
          28           1          54          50          51          55
          29           1          54          50          51          56
          30           1          54          50          51          57
          31           3          61          58          59          60
          32           2          61          58          59          63
          33           3          62          58          59          60
          34           2          62          58          59          63
          35           4          58          59          60          64
          36           4          58          59          60          65
          37           4          58          59          60          66
          38           1          63          59          60          64
          39           1          63          59          60          65
          40           1          63          59          60          66
          41           3          70          67          68          69
          42           2          70          67          68          72
          43           3          71          67          68          69
          44           2          71          67          68          72
          45           4          67          68          69          73
          46           4          67          68          69          74
          47           4          67          68          69          75
          48           1          72          68          69          73
          49           1          72          68          69          74
          50           1          72          68          69          75

Impropers

           1           2          32          34          31          35
           2           1          31          33          32          36
           3           2          41          43          40          44
           4           1          40          42          41          45
           5           2          50          52          49          53
           6           1          49          51          50          54
           7           2          59          61          58          62
           8           1          58          60          59          63
           9           2          68          70          67          71
          10           1          67          69          68          72

Pair Coeffs

           1      0.1553      3.1655
           2      0.0000      0.0000
           3      0.0213      2.4337
           4      0.0785      3.6450
           5      0.0875      3.6744
           6      0.0809      3.5582

Bond Coeffs

           1    450.0000      1.0000
           2    360.2796      1.0967
           3    388.4743      1.0893
           4    388.4743      1.0893
           5    251.8664      1.5036
           6    631.8403      1.3328

Angle Coeffs

           1     55.0000    109.4700
           2     35.6469    106.6794
           3     32.1161    115.6501
           4     43.4834    115.9699
           5     35.5431    119.1027
           6     49.9144    125.2636
           7     36.6477    109.2649
           8     35.5431    119.1027

Dihedral Coeffs

           1     -0.2000      0.5000     -1.0000      0.0000
           2      0.0000     15.5884      0.0000      0.0000
           3      0.0000     15.5884      0.0000      0.0000
           4      1.5206      1.1578     -1.7238      0.0000

Improper Coeffs

           1      4.0000          -1           2
           2      4.0000          -1           2
