created by fftool

20594 atoms
12300 bonds
18504 angles
15700 dihedrals
27 atom types
21 bond types
17 angle types
23 dihedral types
0.000000 31.700000 xlo xhi
0.000000 32.960000 ylo yhi
-69.496 69.496000 zlo zhi

Masses

   1   95.937  # MoS
   2   32.064  # SMo
   3   13.607  # NA DC
   4   11.611  # CR DC
   5   11.611  # CW DC
   6   11.611  # C1 DC
   7    1.008  # HCR
   8    1.008  # HCW
   9    1.008  # H1
  10   11.611  # C2 DC
  11   11.611  # CS DC
  12    1.008  # HC
  13   11.611  # CT DC
  14   13.600  # N3A DC
  15   11.611  # CZA DC
  16   13.601  # NZA DC
  17    0.001  # IMG
  18    0.400  # NA DP
  19    0.400  # CR DP
  20    0.400  # CW DP
  21    0.400  # C1 DP
  22    0.400  # C2 DP
  23    0.400  # CS DP
  24    0.400  # CT DP
  25    0.400  # N3A DP
  26    0.400  # CZA DP
  27    0.400  # NZA DP

Bond Coeffs

   1    51.422084     2.410000  # MoS-SMo
   2   477.055449     1.315000  # CR-NA
   3   427.103250     1.378000  # CW-NA
   4   520.076482     1.341000  # CW-CW
   5   336.998088     1.466000  # NA-CT
   6   339.985660     1.080000  # CR-HA
   7   339.985660     1.080000  # CW-HA
   8   339.985660     1.090000  # HC-CT
   9   267.925430     1.529000  # CT-CT
  10   502.629063     1.310000  # N3-CZ
  11   650.000000     1.157000  # CZ-NZ
  12   500.000000     0.000000  # NA DC-DP
  13   500.000000     0.000000  # CR DC-DP
  14   500.000000     0.000000  # CW DC-DP
  15   500.000000     0.000000  # C1 DC-DP
  16   500.000000     0.000000  # C2 DC-DP
  17   500.000000     0.000000  # CS DC-DP
  18   500.000000     0.000000  # CT DC-DP
  19   500.000000     0.000000  # N3A DC-DP
  20   500.000000     0.000000  # CZA DC-DP
  21   500.000000     0.000000  # NZA DC-DP

Angle Coeffs

   1   141.933556    83.800000  # SMo-MoS-SMo
   2   244.980880    83.800000  # MoS-SMo-MoS
   3    70.004780   126.400000  # CR-NA-CT
   4    70.004780   108.000000  # CW-NA-CR
   5    70.004780   125.600000  # CW-NA-CT
   6    70.004780   109.800000  # NA-CR-NA
   7    35.002390   125.100000  # NA-CR-HA
   8    70.004780   107.100000  # NA-CW-CW
   9    35.002390   122.000000  # NA-CW-HA
  10    35.002390   130.900000  # CW-CW-HA
  11    37.500000   110.700000  # NA-CT-HC
  12    32.994742   107.800000  # HC-CT-HC
  13    58.353250   112.700000  # NA-CT-CT
  14    37.500000   110.700000  # CT-CT-HC
  15    58.353250   112.700000  # CT-CT-CT
  16    43.260038   118.500000  # CZ-N3-CZ
  17    50.788719   175.200000  # N3-CZ-NZ

Dihedral Coeffs

   1     0.000000     4.651052     0.000000     0.000000  # CT-NA-CR-NA
   2     0.000000     4.651052     0.000000     0.000000  # CW-NA-CR-NA
   3     0.000000     4.651052     0.000000     0.000000  # CT-NA-CR-HA
   4     0.000000     4.651052     0.000000     0.000000  # CW-NA-CR-HA
   5     0.000000     3.000000     0.000000     0.000000  # CR-NA-CW-CW
   6     0.000000     3.000000     0.000000     0.000000  # CT-NA-CW-CW
   7     0.000000     3.000000     0.000000     0.000000  # CR-NA-CW-HA
   8     0.000000     3.000000     0.000000     0.000000  # CT-NA-CW-HA
   9     0.000000    10.750478     0.000000     0.000000  # NA-CW-CW-HA
  10     0.000000    10.750478     0.000000     0.000000  # HA-CW-CW-HA
  11     0.000000    10.750478     0.000000     0.000000  # NA-CW-CW-NA
  12     0.000000     0.000000     0.000000     0.000000  # CR-NA-CT-HC
  13     0.000000     0.000000     0.124044     0.000000  # CW-NA-CT-HC
  14    -1.259345     0.000000     0.000000     0.000000  # CR-NA-CT-CT
  15    -1.709728     1.459465     0.189747     0.000000  # CW-NA-CT-CT
  16    -1.787691     0.756262    -0.287428     0.000000  # NA-CT-CT-CT
  17     0.000000     0.000000     0.300000     0.000000  # CT-CT-CT-HC
  18     0.000000     0.000000     0.087715     0.000000  # NA-CT-CT-HC
  19     0.000000     0.000000     0.300000     0.000000  # HC-CT-CT-HC
  20     1.300000    -0.050000     0.200000     0.000000  # CT-CT-CT-CT
  21     0.000000     2.000000     0.000000     0.000000  # CR-CW-NA-CT
  22     0.000000     2.200000     0.000000     0.000000  # NA-NA-CR-HA
  23     0.000000     2.200000     0.000000     0.000000  # NA-CW-CW-HA

Atoms

      1       1    1   0.000000   -1.581    4.074   -7.653  # MoS MoS2
      2       1    1   0.000000    0.000    1.336   -7.653  # MoS MoS2
      3       1    2   0.000000   -1.581    2.248   -9.159  # SMo MoS2
      4       1    2   0.000000    0.000    4.986   -9.159  # SMo MoS2
      5       1    2   0.000000   -1.581    2.248   -6.147  # SMo MoS2
      6       1    2   0.000000    0.000    4.986   -6.147  # SMo MoS2
      7       1    1   0.000000    1.581    4.074   -7.653  # MoS MoS2
      8       1    1   0.000000    3.161    1.336   -7.653  # MoS MoS2
      9       1    2   0.000000    1.581    2.248   -9.159  # SMo MoS2
     10       1    2   0.000000    3.161    4.986   -9.159  # SMo MoS2
     11       1    2   0.000000    1.581    2.248   -6.147  # SMo MoS2
     12       1    2   0.000000    3.161    4.986   -6.147  # SMo MoS2
     13       1    1   0.000000    4.742    4.074   -7.653  # MoS MoS2
     14       1    1   0.000000    6.322    1.336   -7.653  # MoS MoS2
     15       1    2   0.000000    4.742    2.248   -9.159  # SMo MoS2
     16       1    2   0.000000    6.322    4.986   -9.159  # SMo MoS2
     17       1    2   0.000000    4.742    2.248   -6.147  # SMo MoS2
     18       1    2   0.000000    6.322    4.986   -6.147  # SMo MoS2
     19       1    1   0.000000    7.902    4.074   -7.653  # MoS MoS2
     20       1    1   0.000000    9.483    1.336   -7.653  # MoS MoS2
     21       1    2   0.000000    7.902    2.248   -9.159  # SMo MoS2
     22       1    2   0.000000    9.483    4.986   -9.159  # SMo MoS2
     23       1    2   0.000000    7.902    2.248   -6.147  # SMo MoS2
     24       1    2   0.000000    9.483    4.986   -6.147  # SMo MoS2
     25       1    1   0.000000   11.063    4.074   -7.653  # MoS MoS2
     26       1    1   0.000000   12.644    1.336   -7.653  # MoS MoS2
     27       1    2   0.000000   11.063    2.248   -9.159  # SMo MoS2
     28       1    2   0.000000   12.644    4.986   -9.159  # SMo MoS2
     29       1    2   0.000000   11.063    2.248   -6.147  # SMo MoS2
     30       1    2   0.000000   12.644    4.986   -6.147  # SMo MoS2
     31       1    1   0.000000   14.225    4.074   -7.653  # MoS MoS2
     32       1    1   0.000000   15.805    1.336   -7.653  # MoS MoS2
     33       1    2   0.000000   14.225    2.248   -9.159  # SMo MoS2
     34       1    2   0.000000   15.805    4.986   -9.159  # SMo MoS2
     35       1    2   0.000000   14.225    2.248   -6.147  # SMo MoS2
     36       1    2   0.000000   15.805    4.986   -6.147  # SMo MoS2
     37       1    1   0.000000   17.386    4.074   -7.653  # MoS MoS2
     38       1    1   0.000000   18.966    1.336   -7.653  # MoS MoS2
     39       1    2   0.000000   17.386    2.248   -9.159  # SMo MoS2
     40       1    2   0.000000   18.966    4.986   -9.159  # SMo MoS2
     41       1    2   0.000000   17.386    2.248   -6.147  # SMo MoS2
     42       1    2   0.000000   18.966    4.986   -6.147  # SMo MoS2
     43       1    1   0.000000   20.547    4.074   -7.653  # MoS MoS2
     44       1    1   0.000000   22.127    1.336   -7.653  # MoS MoS2
     45       1    2   0.000000   20.547    2.248   -9.159  # SMo MoS2
     46       1    2   0.000000   22.127    4.986   -9.159  # SMo MoS2
     47       1    2   0.000000   20.547    2.248   -6.147  # SMo MoS2
     48       1    2   0.000000   22.127    4.986   -6.147  # SMo MoS2
     49       1    1   0.000000   23.707    4.074   -7.653  # MoS MoS2
     50       1    1   0.000000   25.288    1.336   -7.653  # MoS MoS2
     51       1    2   0.000000   23.707    2.248   -9.159  # SMo MoS2
     52       1    2   0.000000   25.288    4.986   -9.159  # SMo MoS2
     53       1    2   0.000000   23.707    2.248   -6.147  # SMo MoS2
     54       1    2   0.000000   25.288    4.986   -6.147  # SMo MoS2
     55       1    1   0.000000   26.869    4.074   -7.653  # MoS MoS2
     56       1    1   0.000000   28.449    1.336   -7.653  # MoS MoS2
     57       1    2   0.000000   26.869    2.248   -9.159  # SMo MoS2
     58       1    2   0.000000   28.449    4.986   -9.159  # SMo MoS2
     59       1    2   0.000000   26.869    2.248   -6.147  # SMo MoS2
     60       1    2   0.000000   28.449    4.986   -6.147  # SMo MoS2
     61       1    1   0.000000   -1.581    9.549   -7.653  # MoS MoS2
     62       1    1   0.000000    0.000    6.811   -7.653  # MoS MoS2
     63       1    2   0.000000   -1.581    7.724   -9.159  # SMo MoS2
     64       1    2   0.000000    0.000   10.461   -9.159  # SMo MoS2
     65       1    2   0.000000   -1.581    7.724   -6.147  # SMo MoS2
     66       1    2   0.000000    0.000   10.461   -6.147  # SMo MoS2
     67       1    1   0.000000    1.581    9.549   -7.653  # MoS MoS2
     68       1    1   0.000000    3.161    6.811   -7.653  # MoS MoS2
     69       1    2   0.000000    1.581    7.724   -9.159  # SMo MoS2
     70       1    2   0.000000    3.161   10.461   -9.159  # SMo MoS2
     71       1    2   0.000000    1.581    7.724   -6.147  # SMo MoS2
     72       1    2   0.000000    3.161   10.461   -6.147  # SMo MoS2
     73       1    1   0.000000    4.742    9.549   -7.653  # MoS MoS2
     74       1    1   0.000000    6.322    6.811   -7.653  # MoS MoS2
     75       1    2   0.000000    4.742    7.724   -9.159  # SMo MoS2
     76       1    2   0.000000    6.322   10.461   -9.159  # SMo MoS2
     77       1    2   0.000000    4.742    7.724   -6.147  # SMo MoS2
     78       1    2   0.000000    6.322   10.461   -6.147  # SMo MoS2
     79       1    1   0.000000    7.902    9.549   -7.653  # MoS MoS2
     80       1    1   0.000000    9.483    6.811   -7.653  # MoS MoS2
     81       1    2   0.000000    7.902    7.724   -9.159  # SMo MoS2
     82       1    2   0.000000    9.483   10.461   -9.159  # SMo MoS2
     83       1    2   0.000000    7.902    7.724   -6.147  # SMo MoS2
     84       1    2   0.000000    9.483   10.461   -6.147  # SMo MoS2
     85       1    1   0.000000   11.063    9.549   -7.653  # MoS MoS2
     86       1    1   0.000000   12.644    6.811   -7.653  # MoS MoS2
     87       1    2   0.000000   11.063    7.724   -9.159  # SMo MoS2
     88       1    2   0.000000   12.644   10.461   -9.159  # SMo MoS2
     89       1    2   0.000000   11.063    7.724   -6.147  # SMo MoS2
     90       1    2   0.000000   12.644   10.461   -6.147  # SMo MoS2
     91       1    1   0.000000   14.225    9.549   -7.653  # MoS MoS2
     92       1    1   0.000000   15.805    6.811   -7.653  # MoS MoS2
     93       1    2   0.000000   14.225    7.724   -9.159  # SMo MoS2
     94       1    2   0.000000   15.805   10.461   -9.159  # SMo MoS2
     95       1    2   0.000000   14.225    7.724   -6.147  # SMo MoS2
     96       1    2   0.000000   15.805   10.461   -6.147  # SMo MoS2
     97       1    1   0.000000   17.386    9.549   -7.653  # MoS MoS2
     98       1    1   0.000000   18.966    6.811   -7.653  # MoS MoS2
     99       1    2   0.000000   17.386    7.724   -9.159  # SMo MoS2
    100       1    2   0.000000   18.966   10.461   -9.159  # SMo MoS2
    101       1    2   0.000000   17.386    7.724   -6.147  # SMo MoS2
    102       1    2   0.000000   18.966   10.461   -6.147  # SMo MoS2
    103       1    1   0.000000   20.547    9.549   -7.653  # MoS MoS2
    104       1    1   0.000000   22.127    6.811   -7.653  # MoS MoS2
    105       1    2   0.000000   20.547    7.724   -9.159  # SMo MoS2
    106       1    2   0.000000   22.127   10.461   -9.159  # SMo MoS2
    107       1    2   0.000000   20.547    7.724   -6.147  # SMo MoS2
    108       1    2   0.000000   22.127   10.461   -6.147  # SMo MoS2
    109       1    1   0.000000   23.707    9.549   -7.653  # MoS MoS2
    110       1    1   0.000000   25.288    6.811   -7.653  # MoS MoS2
    111       1    2   0.000000   23.707    7.724   -9.159  # SMo MoS2
    112       1    2   0.000000   25.288   10.461   -9.159  # SMo MoS2
    113       1    2   0.000000   23.707    7.724   -6.147  # SMo MoS2
    114       1    2   0.000000   25.288   10.461   -6.147  # SMo MoS2
    115       1    1   0.000000   26.869    9.549   -7.653  # MoS MoS2
    116       1    1   0.000000   28.449    6.811   -7.653  # MoS MoS2
    117       1    2   0.000000   26.869    7.724   -9.159  # SMo MoS2
    118       1    2   0.000000   28.449   10.461   -9.159  # SMo MoS2
    119       1    2   0.000000   26.869    7.724   -6.147  # SMo MoS2
    120       1    2   0.000000   28.449   10.461   -6.147  # SMo MoS2
    121       1    1   0.000000   -1.581   15.024   -7.653  # MoS MoS2
    122       1    1   0.000000    0.000   12.286   -7.653  # MoS MoS2
    123       1    2   0.000000   -1.581   13.198   -9.159  # SMo MoS2
    124       1    2   0.000000    0.000   15.936   -9.159  # SMo MoS2
    125       1    2   0.000000   -1.581   13.198   -6.147  # SMo MoS2
    126       1    2   0.000000    0.000   15.936   -6.147  # SMo MoS2
    127       1    1   0.000000    1.581   15.024   -7.653  # MoS MoS2
    128       1    1   0.000000    3.161   12.286   -7.653  # MoS MoS2
    129       1    2   0.000000    1.581   13.198   -9.159  # SMo MoS2
    130       1    2   0.000000    3.161   15.936   -9.159  # SMo MoS2
    131       1    2   0.000000    1.581   13.198   -6.147  # SMo MoS2
    132       1    2   0.000000    3.161   15.936   -6.147  # SMo MoS2
    133       1    1   0.000000    4.742   15.024   -7.653  # MoS MoS2
    134       1    1   0.000000    6.322   12.286   -7.653  # MoS MoS2
    135       1    2   0.000000    4.742   13.198   -9.159  # SMo MoS2
    136       1    2   0.000000    6.322   15.936   -9.159  # SMo MoS2
    137       1    2   0.000000    4.742   13.198   -6.147  # SMo MoS2
    138       1    2   0.000000    6.322   15.936   -6.147  # SMo MoS2
    139       1    1   0.000000    7.902   15.024   -7.653  # MoS MoS2
    140       1    1   0.000000    9.483   12.286   -7.653  # MoS MoS2
    141       1    2   0.000000    7.902   13.198   -9.159  # SMo MoS2
    142       1    2   0.000000    9.483   15.936   -9.159  # SMo MoS2
    143       1    2   0.000000    7.902   13.198   -6.147  # SMo MoS2
    144       1    2   0.000000    9.483   15.936   -6.147  # SMo MoS2
    145       1    1   0.000000   11.063   15.024   -7.653  # MoS MoS2
    146       1    1   0.000000   12.644   12.286   -7.653  # MoS MoS2
    147       1    2   0.000000   11.063   13.198   -9.159  # SMo MoS2
    148       1    2   0.000000   12.644   15.936   -9.159  # SMo MoS2
    149       1    2   0.000000   11.063   13.198   -6.147  # SMo MoS2
    150       1    2   0.000000   12.644   15.936   -6.147  # SMo MoS2
    151       1    1   0.000000   14.225   15.024   -7.653  # MoS MoS2
    152       1    1   0.000000   15.805   12.286   -7.653  # MoS MoS2
    153       1    2   0.000000   14.225   13.198   -9.159  # SMo MoS2
    154       1    2   0.000000   15.805   15.936   -9.159  # SMo MoS2
    155       1    2   0.000000   14.225   13.198   -6.147  # SMo MoS2
    156       1    2   0.000000   15.805   15.936   -6.147  # SMo MoS2
    157       1    1   0.000000   17.386   15.024   -7.653  # MoS MoS2
    158       1    1   0.000000   18.966   12.286   -7.653  # MoS MoS2
    159       1    2   0.000000   17.386   13.198   -9.159  # SMo MoS2
    160       1    2   0.000000   18.966   15.936   -9.159  # SMo MoS2
    161       1    2   0.000000   17.386   13.198   -6.147  # SMo MoS2
    162       1    2   0.000000   18.966   15.936   -6.147  # SMo MoS2
    163       1    1   0.000000   20.547   15.024   -7.653  # MoS MoS2
    164       1    1   0.000000   22.127   12.286   -7.653  # MoS MoS2
    165       1    2   0.000000   20.547   13.198   -9.159  # SMo MoS2
    166       1    2   0.000000   22.127   15.936   -9.159  # SMo MoS2
    167       1    2   0.000000   20.547   13.198   -6.147  # SMo MoS2
    168       1    2   0.000000   22.127   15.936   -6.147  # SMo MoS2
    169       1    1   0.000000   23.707   15.024   -7.653  # MoS MoS2
    170       1    1   0.000000   25.288   12.286   -7.653  # MoS MoS2
    171       1    2   0.000000   23.707   13.198   -9.159  # SMo MoS2
    172       1    2   0.000000   25.288   15.936   -9.159  # SMo MoS2
    173       1    2   0.000000   23.707   13.198   -6.147  # SMo MoS2
    174       1    2   0.000000   25.288   15.936   -6.147  # SMo MoS2
    175       1    1   0.000000   26.869   15.024   -7.653  # MoS MoS2
    176       1    1   0.000000   28.449   12.286   -7.653  # MoS MoS2
    177       1    2   0.000000   26.869   13.198   -9.159  # SMo MoS2
    178       1    2   0.000000   28.449   15.936   -9.159  # SMo MoS2
    179       1    2   0.000000   26.869   13.198   -6.147  # SMo MoS2
    180       1    2   0.000000   28.449   15.936   -6.147  # SMo MoS2
    181       1    1   0.000000   -1.581   20.498   -7.653  # MoS MoS2
    182       1    1   0.000000    0.000   17.761   -7.653  # MoS MoS2
    183       1    2   0.000000   -1.581   18.674   -9.159  # SMo MoS2
    184       1    2   0.000000    0.000   21.411   -9.159  # SMo MoS2
    185       1    2   0.000000   -1.581   18.674   -6.147  # SMo MoS2
    186       1    2   0.000000    0.000   21.411   -6.147  # SMo MoS2
    187       1    1   0.000000    1.581   20.498   -7.653  # MoS MoS2
    188       1    1   0.000000    3.161   17.761   -7.653  # MoS MoS2
    189       1    2   0.000000    1.581   18.674   -9.159  # SMo MoS2
    190       1    2   0.000000    3.161   21.411   -9.159  # SMo MoS2
    191       1    2   0.000000    1.581   18.674   -6.147  # SMo MoS2
    192       1    2   0.000000    3.161   21.411   -6.147  # SMo MoS2
    193       1    1   0.000000    4.742   20.498   -7.653  # MoS MoS2
    194       1    1   0.000000    6.322   17.761   -7.653  # MoS MoS2
    195       1    2   0.000000    4.742   18.674   -9.159  # SMo MoS2
    196       1    2   0.000000    6.322   21.411   -9.159  # SMo MoS2
    197       1    2   0.000000    4.742   18.674   -6.147  # SMo MoS2
    198       1    2   0.000000    6.322   21.411   -6.147  # SMo MoS2
    199       1    1   0.000000    7.902   20.498   -7.653  # MoS MoS2
    200       1    1   0.000000    9.483   17.761   -7.653  # MoS MoS2
    201       1    2   0.000000    7.902   18.674   -9.159  # SMo MoS2
    202       1    2   0.000000    9.483   21.411   -9.159  # SMo MoS2
    203       1    2   0.000000    7.902   18.674   -6.147  # SMo MoS2
    204       1    2   0.000000    9.483   21.411   -6.147  # SMo MoS2
    205       1    1   0.000000   11.063   20.498   -7.653  # MoS MoS2
    206       1    1   0.000000   12.644   17.761   -7.653  # MoS MoS2
    207       1    2   0.000000   11.063   18.674   -9.159  # SMo MoS2
    208       1    2   0.000000   12.644   21.411   -9.159  # SMo MoS2
    209       1    2   0.000000   11.063   18.674   -6.147  # SMo MoS2
    210       1    2   0.000000   12.644   21.411   -6.147  # SMo MoS2
    211       1    1   0.000000   14.225   20.498   -7.653  # MoS MoS2
    212       1    1   0.000000   15.805   17.761   -7.653  # MoS MoS2
    213       1    2   0.000000   14.225   18.674   -9.159  # SMo MoS2
    214       1    2   0.000000   15.805   21.411   -9.159  # SMo MoS2
    215       1    2   0.000000   14.225   18.674   -6.147  # SMo MoS2
    216       1    2   0.000000   15.805   21.411   -6.147  # SMo MoS2
    217       1    1   0.000000   17.386   20.498   -7.653  # MoS MoS2
    218       1    1   0.000000   18.966   17.761   -7.653  # MoS MoS2
    219       1    2   0.000000   17.386   18.674   -9.159  # SMo MoS2
    220       1    2   0.000000   18.966   21.411   -9.159  # SMo MoS2
    221       1    2   0.000000   17.386   18.674   -6.147  # SMo MoS2
    222       1    2   0.000000   18.966   21.411   -6.147  # SMo MoS2
    223       1    1   0.000000   20.547   20.498   -7.653  # MoS MoS2
    224       1    1   0.000000   22.127   17.761   -7.653  # MoS MoS2
    225       1    2   0.000000   20.547   18.674   -9.159  # SMo MoS2
    226       1    2   0.000000   22.127   21.411   -9.159  # SMo MoS2
    227       1    2   0.000000   20.547   18.674   -6.147  # SMo MoS2
    228       1    2   0.000000   22.127   21.411   -6.147  # SMo MoS2
    229       1    1   0.000000   23.707   20.498   -7.653  # MoS MoS2
    230       1    1   0.000000   25.288   17.761   -7.653  # MoS MoS2
    231       1    2   0.000000   23.707   18.674   -9.159  # SMo MoS2
    232       1    2   0.000000   25.288   21.411   -9.159  # SMo MoS2
    233       1    2   0.000000   23.707   18.674   -6.147  # SMo MoS2
    234       1    2   0.000000   25.288   21.411   -6.147  # SMo MoS2
    235       1    1   0.000000   26.869   20.498   -7.653  # MoS MoS2
    236       1    1   0.000000   28.449   17.761   -7.653  # MoS MoS2
    237       1    2   0.000000   26.869   18.674   -9.159  # SMo MoS2
    238       1    2   0.000000   28.449   21.411   -9.159  # SMo MoS2
    239       1    2   0.000000   26.869   18.674   -6.147  # SMo MoS2
    240       1    2   0.000000   28.449   21.411   -6.147  # SMo MoS2
    241       1    1   0.000000   -1.581   25.974   -7.653  # MoS MoS2
    242       1    1   0.000000    0.000   23.236   -7.653  # MoS MoS2
    243       1    2   0.000000   -1.581   24.148   -9.159  # SMo MoS2
    244       1    2   0.000000    0.000   26.886   -9.159  # SMo MoS2
    245       1    2   0.000000   -1.581   24.148   -6.147  # SMo MoS2
    246       1    2   0.000000    0.000   26.886   -6.147  # SMo MoS2
    247       1    1   0.000000    1.581   25.974   -7.653  # MoS MoS2
    248       1    1   0.000000    3.161   23.236   -7.653  # MoS MoS2
    249       1    2   0.000000    1.581   24.148   -9.159  # SMo MoS2
    250       1    2   0.000000    3.161   26.886   -9.159  # SMo MoS2
    251       1    2   0.000000    1.581   24.148   -6.147  # SMo MoS2
    252       1    2   0.000000    3.161   26.886   -6.147  # SMo MoS2
    253       1    1   0.000000    4.742   25.974   -7.653  # MoS MoS2
    254       1    1   0.000000    6.322   23.236   -7.653  # MoS MoS2
    255       1    2   0.000000    4.742   24.148   -9.159  # SMo MoS2
    256       1    2   0.000000    6.322   26.886   -9.159  # SMo MoS2
    257       1    2   0.000000    4.742   24.148   -6.147  # SMo MoS2
    258       1    2   0.000000    6.322   26.886   -6.147  # SMo MoS2
    259       1    1   0.000000    7.902   25.974   -7.653  # MoS MoS2
    260       1    1   0.000000    9.483   23.236   -7.653  # MoS MoS2
    261       1    2   0.000000    7.902   24.148   -9.159  # SMo MoS2
    262       1    2   0.000000    9.483   26.886   -9.159  # SMo MoS2
    263       1    2   0.000000    7.902   24.148   -6.147  # SMo MoS2
    264       1    2   0.000000    9.483   26.886   -6.147  # SMo MoS2
    265       1    1   0.000000   11.063   25.974   -7.653  # MoS MoS2
    266       1    1   0.000000   12.644   23.236   -7.653  # MoS MoS2
    267       1    2   0.000000   11.063   24.148   -9.159  # SMo MoS2
    268       1    2   0.000000   12.644   26.886   -9.159  # SMo MoS2
    269       1    2   0.000000   11.063   24.148   -6.147  # SMo MoS2
    270       1    2   0.000000   12.644   26.886   -6.147  # SMo MoS2
    271       1    1   0.000000   14.225   25.974   -7.653  # MoS MoS2
    272       1    1   0.000000   15.805   23.236   -7.653  # MoS MoS2
    273       1    2   0.000000   14.225   24.148   -9.159  # SMo MoS2
    274       1    2   0.000000   15.805   26.886   -9.159  # SMo MoS2
    275       1    2   0.000000   14.225   24.148   -6.147  # SMo MoS2
    276       1    2   0.000000   15.805   26.886   -6.147  # SMo MoS2
    277       1    1   0.000000   17.386   25.974   -7.653  # MoS MoS2
    278       1    1   0.000000   18.966   23.236   -7.653  # MoS MoS2
    279       1    2   0.000000   17.386   24.148   -9.159  # SMo MoS2
    280       1    2   0.000000   18.966   26.886   -9.159  # SMo MoS2
    281       1    2   0.000000   17.386   24.148   -6.147  # SMo MoS2
    282       1    2   0.000000   18.966   26.886   -6.147  # SMo MoS2
    283       1    1   0.000000   20.547   25.974   -7.653  # MoS MoS2
    284       1    1   0.000000   22.127   23.236   -7.653  # MoS MoS2
    285       1    2   0.000000   20.547   24.148   -9.159  # SMo MoS2
    286       1    2   0.000000   22.127   26.886   -9.159  # SMo MoS2
    287       1    2   0.000000   20.547   24.148   -6.147  # SMo MoS2
    288       1    2   0.000000   22.127   26.886   -6.147  # SMo MoS2
    289       1    1   0.000000   23.707   25.974   -7.653  # MoS MoS2
    290       1    1   0.000000   25.288   23.236   -7.653  # MoS MoS2
    291       1    2   0.000000   23.707   24.148   -9.159  # SMo MoS2
    292       1    2   0.000000   25.288   26.886   -9.159  # SMo MoS2
    293       1    2   0.000000   23.707   24.148   -6.147  # SMo MoS2
    294       1    2   0.000000   25.288   26.886   -6.147  # SMo MoS2
    295       1    1   0.000000   26.869   25.974   -7.653  # MoS MoS2
    296       1    1   0.000000   28.449   23.236   -7.653  # MoS MoS2
    297       1    2   0.000000   26.869   24.148   -9.159  # SMo MoS2
    298       1    2   0.000000   28.449   26.886   -9.159  # SMo MoS2
    299       1    2   0.000000   26.869   24.148   -6.147  # SMo MoS2
    300       1    2   0.000000   28.449   26.886   -6.147  # SMo MoS2
    301       1    1   0.000000   -1.581   31.449   -7.653  # MoS MoS2
    302       1    1   0.000000    0.000   28.711   -7.653  # MoS MoS2
    303       1    2   0.000000   -1.581   29.624   -9.159  # SMo MoS2
    304       1    2   0.000000    0.000   32.361   -9.159  # SMo MoS2
    305       1    2   0.000000   -1.581   29.624   -6.147  # SMo MoS2
    306       1    2   0.000000    0.000   32.361   -6.147  # SMo MoS2
    307       1    1   0.000000    1.581   31.449   -7.653  # MoS MoS2
    308       1    1   0.000000    3.161   28.711   -7.653  # MoS MoS2
    309       1    2   0.000000    1.581   29.624   -9.159  # SMo MoS2
    310       1    2   0.000000    3.161   32.361   -9.159  # SMo MoS2
    311       1    2   0.000000    1.581   29.624   -6.147  # SMo MoS2
    312       1    2   0.000000    3.161   32.361   -6.147  # SMo MoS2
    313       1    1   0.000000    4.742   31.449   -7.653  # MoS MoS2
    314       1    1   0.000000    6.322   28.711   -7.653  # MoS MoS2
    315       1    2   0.000000    4.742   29.624   -9.159  # SMo MoS2
    316       1    2   0.000000    6.322   32.361   -9.159  # SMo MoS2
    317       1    2   0.000000    4.742   29.624   -6.147  # SMo MoS2
    318       1    2   0.000000    6.322   32.361   -6.147  # SMo MoS2
    319       1    1   0.000000    7.902   31.449   -7.653  # MoS MoS2
    320       1    1   0.000000    9.483   28.711   -7.653  # MoS MoS2
    321       1    2   0.000000    7.902   29.624   -9.159  # SMo MoS2
    322       1    2   0.000000    9.483   32.361   -9.159  # SMo MoS2
    323       1    2   0.000000    7.902   29.624   -6.147  # SMo MoS2
    324       1    2   0.000000    9.483   32.361   -6.147  # SMo MoS2
    325       1    1   0.000000   11.063   31.449   -7.653  # MoS MoS2
    326       1    1   0.000000   12.644   28.711   -7.653  # MoS MoS2
    327       1    2   0.000000   11.063   29.624   -9.159  # SMo MoS2
    328       1    2   0.000000   12.644   32.361   -9.159  # SMo MoS2
    329       1    2   0.000000   11.063   29.624   -6.147  # SMo MoS2
    330       1    2   0.000000   12.644   32.361   -6.147  # SMo MoS2
    331       1    1   0.000000   14.225   31.449   -7.653  # MoS MoS2
    332       1    1   0.000000   15.805   28.711   -7.653  # MoS MoS2
    333       1    2   0.000000   14.225   29.624   -9.159  # SMo MoS2
    334       1    2   0.000000   15.805   32.361   -9.159  # SMo MoS2
    335       1    2   0.000000   14.225   29.624   -6.147  # SMo MoS2
    336       1    2   0.000000   15.805   32.361   -6.147  # SMo MoS2
    337       1    1   0.000000   17.386   31.449   -7.653  # MoS MoS2
    338       1    1   0.000000   18.966   28.711   -7.653  # MoS MoS2
    339       1    2   0.000000   17.386   29.624   -9.159  # SMo MoS2
    340       1    2   0.000000   18.966   32.361   -9.159  # SMo MoS2
    341       1    2   0.000000   17.386   29.624   -6.147  # SMo MoS2
    342       1    2   0.000000   18.966   32.361   -6.147  # SMo MoS2
    343       1    1   0.000000   20.547   31.449   -7.653  # MoS MoS2
    344       1    1   0.000000   22.127   28.711   -7.653  # MoS MoS2
    345       1    2   0.000000   20.547   29.624   -9.159  # SMo MoS2
    346       1    2   0.000000   22.127   32.361   -9.159  # SMo MoS2
    347       1    2   0.000000   20.547   29.624   -6.147  # SMo MoS2
    348       1    2   0.000000   22.127   32.361   -6.147  # SMo MoS2
    349       1    1   0.000000   23.707   31.449   -7.653  # MoS MoS2
    350       1    1   0.000000   25.288   28.711   -7.653  # MoS MoS2
    351       1    2   0.000000   23.707   29.624   -9.159  # SMo MoS2
    352       1    2   0.000000   25.288   32.361   -9.159  # SMo MoS2
    353       1    2   0.000000   23.707   29.624   -6.147  # SMo MoS2
    354       1    2   0.000000   25.288   32.361   -6.147  # SMo MoS2
    355       1    1   0.000000   26.869   31.449   -7.653  # MoS MoS2
    356       1    1   0.000000   28.449   28.711   -7.653  # MoS MoS2
    357       1    2   0.000000   26.869   29.624   -9.159  # SMo MoS2
    358       1    2   0.000000   28.449   32.361   -9.159  # SMo MoS2
    359       1    2   0.000000   26.869   29.624   -6.147  # SMo MoS2
    360       1    2   0.000000   28.449   32.361   -6.147  # SMo MoS2
    361       2    1   0.000000   28.449   26.888   -1.506  # MoS MoS2
    362       2    1   0.000000   26.869   29.625   -1.506  # MoS MoS2
    363       2    2   0.000000   28.449   28.713   -3.012  # SMo MoS2
    364       2    2   0.000000   26.869   25.975   -3.012  # SMo MoS2